Generated by pymatgen.io.lammps.data.LammpsData

16054  atoms
15318  bonds
27467  angles
27996  dihedrals
  377  impropers

   18  atom types
   17  bond types
   27  angle types
   21  dihedral types
    1  improper types

-0.2500000000 60.2500000000  xlo xhi
-0.2500000000 60.2500000000  ylo yhi
-0.2500000000 60.2500000000  zlo zhi

Masses

1   32.065000
2   18.998403
3   15.999400
4   14.006700
5   12.010700
6    1.007940
7   14.010000
8   32.060000
9   16.000000
10  12.010000
11  19.000000
12  16.000000
13  12.010000
14  12.010000
15   1.008000
16  32.060000
17  32.060000
18   6.941000

Pair Coeffs

1     0.2500  3.550000
2     0.0610  2.940000
3     0.1700  2.960000
4     0.1700  3.250000
5     0.0660  3.500000
6     0.0300  2.500000
7       0.17  3.249999
8       0.25  3.549340
9       0.21  2.959566
10     0.066  3.499450
11     0.053  2.948875
12      0.14  2.900000
13     0.066  3.500000
14     0.066  3.500000
15      0.03  2.500000
16  0.344001  3.590322
17  0.344001  3.590322
18  0.165057  1.506000

Bond Coeffs

1   735.00  1.471
2   245.00  1.722
3   205.00  1.840
4   367.00  1.332
5   300.00  1.458
6   340.00  1.090
7   441.80  1.323
8   235.40  1.818
9   637.10  1.442
10  372.00  1.570
11  320.00  1.410
12  320.00  1.380
13  268.00  1.529
14  340.00  1.090
15  340.00  1.090
16  157.87  2.133
17  154.36  2.117


Angle Coeffs

1   115.00  120.172
2   115.00  107.225
3   100.00  108.550
4    95.00  102.068
5    75.00  117.082
6    75.00  112.870
7    90.00  108.100
8    77.00  109.100
9    50.00  109.350
10   33.00  107.800
11   93.30  107.100
12   82.90  111.800
13  104.00  102.600
14  115.80  118.500
15   94.30  113.600
16   97.50  100.200
17   80.20  125.600
18   60.00  109.500
19   50.00  109.500
20   35.00  109.500
21   37.50  110.700
22   33.00  107.800
23   92.60  111.550
24   35.00  109.500
25   33.00  109.500
26   73.56  112.740
27   73.56  112.740


Dihedral Coeffs

1 3 -0.304000000 1 0.000000000 0.504500000 2 180.000000000 0.655500000 3 0.000000000
2 2 -0.701500000 2 180.000000000 0.020000000 3 0.000000000
3 3 -0.674000000 1 0.000000000 0.689500000 2 180.000000000 -0.115500000 3 0.000000000
4 2 0.854000000 1 0.000000000 0.189500000 2 180.000000000
5 1 0.150000000 3 0.000000000
6 1 0.150000000 3 0.000000000
7 1 0.173400000 3 0.000000000
8 1 0.158000000 3 0.000000000
9 1 -0.001800000 3 0.000000000
10 3 3.916460000 1 0.000000000 -1.245000000 2 180.000000000 -0.381800000 3 0.000000000
11 3 0.062500000 1 0.000000000 -0.011000000 2 180.000000000 0.280500000 3 0.000000000
12 3 0.062500000 1 0.000000000 -0.011000000 2 180.000000000 0.280500000 3 0.000000000
13 1 0.370500000 3 0.000000000
14 1 0.370500000 3 0.000000000
15 3 -0.533500000 1 0.000000000 -0.783500000 2 180.000000000 0.337500000 3 0.000000000
16 1 0.370500000 3 0.000000000
17 3 1.119000000 1 0.000000000 -1.163500000 2 180.000000000 -0.341500000 3 0.000000000
18 1 0.234000000 3 0.000000000
19 1 0.150000000 3 0.000000000
20 4 5.431700000 1 0.000000000 -3.590000000 2 180.000000000 1.055600000 3 0.000000000 0.058320000 4 180.000000000
21 4 5.431700000 1 0.000000000 -3.590000000 2 180.000000000 1.055600000 3 0.000000000 0.058320000 4 180.000000000


Improper Coeffs

1 1.000000000 -1 2


Atoms

1         1   1  1.60210000000000007958 53.1962420000 12.1692290000 48.1953980000
2         1   2 -0.01499999999999999944 55.7103120000 11.8189270000 49.0170060000
3         1   2 -0.01499999999999999944 54.3066270000 10.3401960000 49.7877500000
4         1   2 -0.01499999999999999944 54.9719900000 10.2336550000 47.7116620000
5         1   3 -0.64549999999999996270 53.7287550000 12.9949750000 47.1169020000
6         1   3 -0.64549999999999996270 52.0753070000 11.2518810000 48.0249220000
7         1   4 -0.56599999999999994760 52.8918060000 13.1374490000 49.4987750000
8         1   5 -0.18429999999999999161 54.6439700000 11.0620380000 48.7039770000
9         1   5  0.02220000000000000098 53.7556840000 14.2951520000 49.7636400000
10        1   5  0.02220000000000000098 52.1490970000 12.5994710000 50.6469630000
11        1   6  0.07330000000000000404 51.5116430000 11.7773350000 50.3211600000
12        1   6  0.07330000000000000404 51.5158380000 13.3993370000 51.0430240000
13        1   6  0.07330000000000000404 52.8278370000 12.2518620000 51.4374850000
14        1   6  0.07330000000000000404 54.2146770000 14.6329360000 48.8338490000
15        1   6  0.07330000000000000404 54.5354710000 14.0554400000 50.4978030000
16        1   6  0.07330000000000000404 53.1277160000 15.1011970000 50.1569040000
17        2   1  1.60210000000000007958 22.4144320000 25.0873020000 29.8437450000
18        2   2 -0.01499999999999999944 23.8762960000 23.3047430000 31.1867780000
19        2   2 -0.01499999999999999944 21.9672250000 22.5338150000 30.4711350000
20        2   2 -0.01499999999999999944 23.6166050000 22.8303380000 29.0726280000
21        2   3 -0.64549999999999996270 23.6380660000 25.8601330000 29.6592680000
22        2   3 -0.64549999999999996270 21.3889240000 24.9509800000 28.8157200000
23        2   4 -0.56599999999999994760 21.6921610000 25.5719810000 31.2481440000
24        2   5 -0.18429999999999999161 23.0126450000 23.3195690000 30.1563210000
25        2   5  0.02220000000000000098 22.5203370000 25.9946570000 32.3848870000
26        2   5  0.02220000000000000098 20.3338750000 25.1093180000 31.5649640000
27        2   6  0.07330000000000000404 19.8026670000 24.8676030000 30.6442060000
28        2   6  0.07330000000000000404 19.8088910000 25.9264860000 32.0692400000
29        2   6  0.07330000000000000404 20.3520410000 24.2310250000 32.2242950000
30        2   6  0.07330000000000000404 23.4826170000 26.3596980000 32.0242660000
31        2   6  0.07330000000000000404 22.6767730000 25.1733250000 33.0958480000
32        2   6  0.07330000000000000404 22.0026390000 26.8151810000 32.8922690000
33        3   1  1.60210000000000007958 38.5237000000 44.9297440000 45.3658540000
34        3   2 -0.01499999999999999944 36.5242910000 44.7684850000 47.1250190000
35        3   2 -0.01499999999999999944 38.4683290000 45.1802320000 48.0206790000
36        3   2 -0.01499999999999999944 37.4019680000 46.7592680000 46.9559140000
37        3   3 -0.64549999999999996270 37.5155760000 45.1385070000 44.3320830000
38        3   3 -0.64549999999999996270 39.8059550000 45.6243070000 45.3879850000
39        3   4 -0.56599999999999994760 38.7999940000 43.3076420000 45.5120420000
40        3   5 -0.18429999999999999161 37.6713120000 45.4532430000 46.9720370000
41        3   5  0.02220000000000000098 37.6986600000 42.3593300000 45.3011350000
42        3   5  0.02220000000000000098 39.9250100000 42.8320400000 46.3290580000
43        3   6  0.07330000000000000404 40.6965850000 43.6006610000 46.3770050000
44        3   6  0.07330000000000000404 40.3426540000 41.9448600000 45.8431040000
45        3   6  0.07330000000000000404 39.6007330000 42.5680180000 47.3447260000
46        3   6  0.07330000000000000404 36.9496900000 42.8042560000 44.6451090000
47        3   6  0.07330000000000000404 37.2337660000 42.0652570000 46.2508280000
48        3   6  0.07330000000000000404 38.1088080000 41.4700920000 44.8114980000
49        4   1  1.60210000000000007958 54.0764310000  7.1862560000 55.4961470000
50        4   2 -0.01499999999999999944 55.1587830000  5.1303300000 56.8076290000
51        4   2 -0.01499999999999999944 56.5189810000  6.8050390000 56.4974100000
52        4   2 -0.01499999999999999944 54.9495750000  6.9405040000 58.0083090000
53        4   3 -0.64549999999999996270 52.7689360000  6.6410430000 55.8451160000
54        4   3 -0.64549999999999996270 54.3719880000  8.6143610000 55.4804070000
55        4   4 -0.56599999999999994760 54.5516030000  6.5334600000 54.0549690000
56        4   5 -0.18429999999999999161 55.2505950000  6.4717490000 56.7966320000
57        4   5  0.02220000000000000098 54.1724200000  5.1548990000 53.7195530000
58        4   5  0.02220000000000000098 55.7320280000  7.0730390000 53.3658950000
59        4   6  0.07330000000000000404 55.8873630000  8.1114620000 53.6590740000
60        4   6  0.07330000000000000404 55.5391220000  7.0370740000 52.2892520000
61        4   6  0.07330000000000000404 56.6322920000  6.4853760000 53.5908850000
62        4   6  0.07330000000000000404 53.2608990000  4.8831700000 54.2530130000
63        4   6  0.07330000000000000404 54.9732210000  4.4461670000 53.9664160000
64        4   6  0.07330000000000000404 53.9741270000  5.1122680000 52.6436490000
65        5   1  1.60210000000000007958 41.8214650000 13.8129830000 26.1089140000
66        5   2 -0.01499999999999999944 40.0424240000 14.7021930000 24.3305400000
67        5   2 -0.01499999999999999944 39.1544660000 13.8406330000 26.1250510000
68        5   2 -0.01499999999999999944 40.0649490000 15.8228450000 26.2029080000
69        5   3 -0.64549999999999996270 42.8145830000 14.6470060000 25.4405580000
70        5   3 -0.64549999999999996270 41.7677010000 13.6324670000 27.5551540000
71        5   4 -0.56599999999999994760 41.8142620000 12.3251500000 25.3911210000
72        5   5 -0.18429999999999999161 40.1612900000 14.6057240000 25.6663980000
73        5   5  0.02220000000000000098 42.0805010000 12.2097460000 23.9514990000
74        5   5  0.02220000000000000098 41.0613120000 11.2238480000 26.0072160000
75        5   6  0.07330000000000000404 40.9656950000 11.3971100000 27.0792430000
76        5   6  0.07330000000000000404 41.6265120000 10.3000490000 25.8497010000
77        5   6  0.07330000000000000404 40.0645290000 11.1178870000 25.5581710000
78        5   6  0.07330000000000000404 42.6829550000 13.0558190000 23.6190910000
79        5   6  0.07330000000000000404 41.1491530000 12.1659790000 23.3725350000
80        5   6  0.07330000000000000404 42.6493930000 11.2889070000 23.7868000000
81        6   1  1.60210000000000007958 41.6258540000 29.5420350000 56.3878620000
82        6   2 -0.01499999999999999944 42.0877660000 27.3619320000 54.9208630000
83        6   2 -0.01499999999999999944 43.3474740000 27.5277180000 56.6919290000
84        6   2 -0.01499999999999999944 41.2534080000 26.9460970000 56.8939470000
85        6   3 -0.64549999999999996270 40.3355200000 29.6464450000 55.7150210000
86        6   3 -0.64549999999999996270 41.8197470000 29.8409480000 57.8021260000
87        6   4 -0.56599999999999994760 42.7458070000 30.3837590000 55.5125740000
88        6   5 -0.18429999999999999161 42.1035740000 27.7191110000 56.2170600000
89        6   5  0.02220000000000000098 42.6372090000 30.4356240000 54.0489380000
90        6   5  0.02220000000000000098 44.0807630000 30.6233670000 56.0781280000
91        6   6  0.07330000000000000404 44.0284770000 30.6054610000 57.1668660000
92        6   6  0.07330000000000000404 44.4083960000 31.6174180000 55.7584630000
93        6   6  0.07330000000000000404 44.8052820000 29.8752170000 55.7291450000
94        6   6  0.07330000000000000404 41.5981070000 30.2912630000 53.7510900000
95        6   6  0.07330000000000000404 43.2699130000 29.6764490000 53.5715890000
96        6   6  0.07330000000000000404 42.9600790000 31.4294290000 53.7221120000
97        7   1  1.60210000000000007958  2.4379080000 24.4167770000 15.9092210000
98        7   2 -0.01499999999999999944  0.0072530000 25.4340870000 16.3279020000
99        7   2 -0.01499999999999999944  0.0000300000 23.4591200000 15.4056890000
100       7   2 -0.01499999999999999944  0.4519110000 23.6684710000 17.5308190000
101       7   3 -0.64549999999999996270  2.9405720000 25.3761070000 16.8867660000
102       7   3 -0.64549999999999996270  2.9314230000 23.0486630000 15.8006320000
103       7   4 -0.56599999999999994760  2.4863440000 25.1151960000 14.4129620000
104       7   5 -0.18429999999999999161  0.6026980000 24.2285190000 16.3299380000
105       7   5  0.02220000000000000098  2.2502070000 26.5580550000 14.2747160000
106       7   5  0.02220000000000000098  2.2399000000 24.2948940000 13.2189180000
107       7   6  0.07330000000000000404  2.4916060000 23.2549740000 13.4277600000
108       7   6  0.07330000000000000404  2.8914270000 24.6602290000 12.4190990000
109       7   6  0.07330000000000000404  1.1935890000 24.3649320000 12.8921590000
110       7   6  0.07330000000000000404  2.5107310000 27.0649350000 15.2044930000
111       7   6  0.07330000000000000404  1.2055060000 26.7714870000 14.0147750000
112       7   6  0.07330000000000000404  2.9019890000 26.9313550000 13.4781380000
113       8   1  1.60210000000000007958 11.0384440000 36.2510900000 54.5951060000
114       8   2 -0.01499999999999999944 10.1373520000 37.3737940000 52.3488060000
115       8   2 -0.01499999999999999944  8.9280640000 37.8081310000 54.1094870000
116       8   2 -0.01499999999999999944 10.8505220000 38.8044450000 53.8343210000
117       8   3 -0.64549999999999996270 12.3266430000 36.0958370000 53.9280090000
118       8   3 -0.64549999999999996270 10.9016450000 36.6084820000 56.0024590000
119       8   4 -0.56599999999999994760 10.1279880000 34.9041810000 54.3021370000
120       8   5 -0.18429999999999999161 10.1877900000 37.6601290000 53.6615970000
121       8   5  0.02220000000000000098 10.2558620000 34.2038820000 53.0176360000
122       8   5  0.02220000000000000098  8.8696160000 34.7033840000 55.0339530000
123       8   6  0.07330000000000000404  8.9089250000 35.2317670000 55.9866700000
124       8   6  0.07330000000000000404  8.7616670000 33.6322260000 55.2305100000
125       8   6  0.07330000000000000404  8.0060280000 35.0521060000 54.4516710000
126       8   6  0.07330000000000000404 11.2432040000 34.3894350000 52.5933590000
127       8   6  0.07330000000000000404  9.4806310000 34.5203630000 52.3081440000
128       8   6  0.07330000000000000404 10.1525680000 33.1305380000 53.2072980000
129       9   1  1.60210000000000007958  7.7627580000 46.7200740000  4.3453720000
130       9   2 -0.01499999999999999944  7.3136870000 44.3271320000  3.2542880000
131       9   2 -0.01499999999999999944  5.5606670000 45.6209480000  3.3174500000
132       9   2 -0.01499999999999999944  7.1366690000 45.9909270000  1.8533670000
133       9   3 -0.64549999999999996270  9.1842120000 46.4936950000  4.1070430000
134       9   3 -0.64549999999999996270  7.1183600000 48.0180340000  4.1806390000
135       9   4 -0.56599999999999994760  7.3778670000 46.1258420000  5.8379100000
136       9   5 -0.18429999999999999161  6.8881440000 45.5934800000  3.1018770000
137       9   5  0.02220000000000000098  8.0688520000 44.9345590000  6.3479080000
138       9   5  0.02220000000000000098  6.0594840000 46.4158290000  6.4185550000
139       9   6  0.07330000000000000404  5.6673760000 47.3422000000  5.9984450000
140       9   6  0.07330000000000000404  6.1880630000 46.5461600000  7.4975120000
141       9   6  0.07330000000000000404  5.3509680000 45.5965920000  6.2360700000
142       9   6  0.07330000000000000404  9.0506670000 44.8497200000  5.8808670000
143       9   6  0.07330000000000000404  7.4881250000 44.0221390000  6.1614440000
144       9   6  0.07330000000000000404  8.2043520000 45.0597870000  7.4271050000
145      10   1  1.60210000000000007958  7.3912960000  9.4844560000 33.6114310000
146      10   2 -0.01499999999999999944  7.8911420000 10.9252570000 35.8006190000
147      10   2 -0.01499999999999999944  7.4740990000  8.8222790000 36.1937890000
148      10   2 -0.01499999999999999944  9.4045710000  9.4146140000 35.3651640000
149      10   3 -0.64549999999999996270  8.0334650000 10.5445510000 32.8417580000
150      10   3 -0.64549999999999996270  7.5427230000  8.0664900000 33.3056070000
151      10   4 -0.56599999999999994760  5.7803370000  9.8275260000 33.7380800000
152      10   5 -0.18429999999999999161  8.0961560000  9.6724840000 35.3573580000
153      10   5  0.02220000000000000098  5.3380060000 11.2251750000 33.8254560000
154      10   5  0.02220000000000000098  4.8613380000  8.8158450000 34.2778160000
155      10   6  0.07330000000000000404  5.2737730000  7.8197180000 34.1164660000
156      10   6  0.07330000000000000404  3.9149310000  8.8964940000 33.7342410000
157      10   6  0.07330000000000000404  4.6763670000  8.9717250000 35.3492320000
158      10   6  0.07330000000000000404  6.0753360000 11.8753360000 33.3533120000
159      10   6  0.07330000000000000404  5.1830290000 11.5335480000 34.8672870000
160      10   6  0.07330000000000000404  4.3927880000 11.3141680000 33.2801570000
161      11   1  1.60210000000000007958 44.5909720000 16.4592800000 27.7021600000
162      11   2 -0.01499999999999999944 44.1555850000 17.4747910000 25.2736880000
163      11   2 -0.01499999999999999944 45.7370580000 18.4780510000 26.3887840000
164      11   2 -0.01499999999999999944 46.1034760000 16.5177520000 25.5015600000
165      11   3 -0.64549999999999996270 43.9002380000 15.2545240000 27.2549160000
166      11   3 -0.64549999999999996270 45.7642640000 16.4367070000 28.5681630000
167      11   4 -0.56599999999999994760 43.4781980000 17.4950050000 28.3486380000
168      11   5 -0.18429999999999999161 45.1926310000 17.2806580000 26.1072350000
169      11   5  0.02220000000000000098 42.1188010000 17.5417180000 27.7949490000
170      11   5  0.02220000000000000098 43.9316740000 18.6918500000 29.0706470000
171      11   6  0.07330000000000000404 44.9308960000 18.5233380000 29.4725940000
172      11   6  0.07330000000000000404 43.2425650000 18.8641030000 29.9031870000
173      11   6  0.07330000000000000404 43.9381800000 19.5759740000 28.4189360000
174      11   6  0.07330000000000000404 41.8784930000 16.5865650000 27.3267400000
175      11   6  0.07330000000000000404 42.0102650000 18.3524450000 27.0631940000
176      11   6  0.07330000000000000404 41.4231350000 17.7101610000 28.6234320000
177      12   1  1.60210000000000007958 35.5895650000  2.7981650000 52.4411680000
178      12   2 -0.01499999999999999944 33.0894390000  2.7006890000 53.3675380000
179      12   2 -0.01499999999999999944 34.3011450000  0.9653370000 53.8884470000
180      12   2 -0.01499999999999999944 34.6095440000  2.8613060000 54.9249760000
181      12   3 -0.64549999999999996270 35.4085550000  4.2369080000 52.2804410000
182      12   3 -0.64549999999999996270 36.8360570000  2.1921030000 52.8950750000
183      12   4 -0.56599999999999994760 35.1157720000  2.0488320000 51.0472720000
184      12   5 -0.18429999999999999161 34.3157260000  2.3032520000 53.7499210000
185      12   5  0.02220000000000000098 34.0088280000  2.6072790000 50.2601720000
186      12   5  0.02220000000000000098 35.3958330000  0.6186560000 50.8587640000
187      12   6  0.07330000000000000404 36.2612090000  0.3306770000 51.4559190000
188      12   6  0.07330000000000000404 35.6291510000  0.4577220000 49.8017260000
189      12   6  0.07330000000000000404 34.5315310000 -0.0000230000 51.1356450000
190      12   6  0.07330000000000000404 33.9275660000  3.6786440000 50.4468770000
191      12   6  0.07330000000000000404 33.0573790000  2.1149130000 50.4985930000
192      12   6  0.07330000000000000404 34.2374120000  2.4530680000 49.2006080000
193      13   1  1.60210000000000007958 33.0707620000 33.6169680000 17.6108120000
194      13   2 -0.01499999999999999944 32.7916260000 32.7017330000 15.1202840000
195      13   2 -0.01499999999999999944 30.9556750000 32.6642010000 16.2945490000
196      13   2 -0.01499999999999999944 31.7113160000 34.5567630000 15.5126170000
197      13   3 -0.64549999999999996270 34.2995100000 34.2674110000 17.1684530000
198      13   3 -0.64549999999999996270 32.1356840000 34.2235170000 18.5514570000
199      13   4 -0.56599999999999994760 33.4410990000 32.0970130000 18.1413900000
200      13   5 -0.18429999999999999161 32.0640020000 33.3778120000 16.0266140000
201      13   5  0.02220000000000000098 34.5273720000 31.3459080000 17.4990760000
202      13   5  0.02220000000000000098 32.4226620000 31.3029990000 18.8426050000
203      13   6  0.07330000000000000404 31.6985330000 31.9669130000 19.3151090000
204      13   6  0.07330000000000000404 32.9262040000 30.7214180000 19.6209840000
205      13   6  0.07330000000000000404 31.9056750000 30.6174300000 18.1576500000
206      13   6  0.07330000000000000404 35.2425210000 32.0392250000 17.0550490000
207      13   6  0.07330000000000000404 34.1442040000 30.6633410000 16.7297860000
208      13   6  0.07330000000000000404 35.0383510000 30.7641520000 18.2731360000
209      14   1  1.60210000000000007958 47.4387470000 14.4435740000  2.1290530000
210      14   2 -0.01499999999999999944 47.7023890000 15.8947560000  4.3523080000
211      14   2 -0.01499999999999999944 49.1181380000 14.2452530000  4.1916290000
212      14   2 -0.01499999999999999944 49.3979340000 16.0435450000  2.9866140000
213      14   3 -0.64549999999999996270 46.7051310000 15.5670680000  1.5562120000
214      14   3 -0.64549999999999996270 48.3740210000 13.6239200000  1.3671370000
215      14   4 -0.56599999999999994760 46.3643990000 13.4470790000  2.8917460000
216      14   5 -0.18429999999999999161 48.4896640000 15.2136720000  3.5012640000
217      14   5  0.02220000000000000098 45.1831220000 14.0181690000  3.5514090000
218      14   5  0.02220000000000000098 46.8066050000 12.1293560000  3.3686450000
219      14   6  0.07330000000000000404 47.6574090000 11.7899200000  2.7776120000
220      14   6  0.07330000000000000404 45.9795950000 11.4261590000  3.2299540000
221      14   6  0.07330000000000000404 47.0812260000 12.1580920000  4.4317550000
222      14   6  0.07330000000000000404 44.9233870000 14.9686280000  3.0840210000
223      14   6  0.07330000000000000404 45.3544590000 14.1662580000  4.6252980000
224      14   6  0.07330000000000000404 44.3501640000 13.3211520000  3.4133660000
225      15   1  1.60210000000000007958 25.9949170000 49.5034690000 42.2442960000
226      15   2 -0.01499999999999999944 27.1891320000 50.9720230000 44.1245880000
227      15   2 -0.01499999999999999944 28.2670390000 50.9003230000 42.2314420000
228      15   2 -0.01499999999999999944 26.4705480000 52.1259690000 42.4174920000
229      15   3 -0.64549999999999996270 24.7638150000 49.6257330000 43.0176130000
230      15   3 -0.64549999999999996270 26.0340960000 49.5421140000 40.7868810000
231      15   4 -0.56599999999999994760 26.8085220000 48.1607980000 42.7583050000
232      15   5 -0.18429999999999999161 27.0449710000 50.9807870000 42.7877660000
233      15   5  0.02220000000000000098 26.7374890000 47.7620870000 44.1699350000
234      15   5  0.02220000000000000098 27.9734490000 47.6818790000 42.0013690000
235      15   6  0.07330000000000000404 27.8938080000 48.0002320000 40.9617950000
236      15   6  0.07330000000000000404 27.9703320000 46.5880210000 42.0350150000
237      15   6  0.07330000000000000404 28.9130540000 48.0533450000 42.4321840000
238      15   6  0.07330000000000000404 25.8123110000 48.1336950000 44.6117960000
239      15   6  0.07330000000000000404 27.5981610000 48.1380000000 44.7377870000
240      15   6  0.07330000000000000404 26.7301880000 46.6680300000 44.2110960000
241      16   1  1.60210000000000007958 29.1544320000 50.9262370000  3.6679090000
242      16   2 -0.01499999999999999944 30.7238840000 51.6328310000  5.7064970000
243      16   2 -0.01499999999999999944 29.6267410000 49.7770530000  6.0280370000
244      16   2 -0.01499999999999999944 31.3522980000 49.8059770000  4.6916920000
245      16   3 -0.64549999999999996270 29.9425580000 51.8238310000  2.8301970000
246      16   3 -0.64549999999999996270 28.6504760000 49.6367090000  3.2093970000
247      16   4 -0.56599999999999994760 27.9003530000 51.7806710000  4.3207140000
248      16   5 -0.18429999999999999161 30.2972420000 50.5029840000  5.1154190000
249      16   5  0.02220000000000000098 28.0836750000 53.1972880000  4.6617490000
250      16   5  0.02220000000000000098 26.8281920000 51.0703900000  5.0315890000
251      16   6  0.07330000000000000404 26.7579630000 50.0463470000  4.6644290000
252      16   6  0.07330000000000000404 25.8856980000 51.5848240000  4.8200980000
253      16   6  0.07330000000000000404 27.0004550000 51.0645840000  6.1163640000
254      16   6  0.07330000000000000404 28.8701660000 53.6271690000  4.0405250000
255      16   6  0.07330000000000000404 28.3350030000 53.3263500000  5.7222690000
256      16   6  0.07330000000000000404 27.1450820000 53.7192800000  4.4489720000
257      17   1  1.60210000000000007958 16.8820670000 26.4178170000 21.7719630000
258      17   2 -0.01499999999999999944 14.9236880000 28.0236310000 22.6112530000
259      17   2 -0.01499999999999999944 14.6743970000 27.3068730000 20.5679380000
260      17   2 -0.01499999999999999944 14.2929430000 25.9664060000 22.2477730000
261      17   3 -0.64549999999999996270 17.2269630000 26.2074740000 23.1738840000
262      17   3 -0.64549999999999996270 16.9323650000 25.3627160000 20.7663200000
263      17   4 -0.56599999999999994760 17.7279150000 27.7213740000 21.2114210000
264      17   5 -0.18429999999999999161 15.0686140000 26.9569860000 21.8055130000
265      17   5  0.02220000000000000098 18.0207840000 28.8423490000 22.1138390000
266      17   5  0.02220000000000000098 17.7329680000 28.0214210000 19.7729090000
267      17   6  0.07330000000000000404 17.5494840000 27.1089140000 19.2053970000
268      17   6  0.07330000000000000404 18.7246670000 28.4038290000 19.5122110000
269      17   6  0.07330000000000000404 16.9767410000 28.7758140000 19.5170630000
270      17   6  0.07330000000000000404 18.0358130000 28.4904380000 23.1459330000
271      17   6  0.07330000000000000404 17.2836520000 29.6483280000 22.0063280000
272      17   6  0.07330000000000000404 19.0138720000 29.2278180000 21.8610590000
273      18   1  1.60210000000000007958  1.4338230000 55.7116160000 44.2488960000
274      18   2 -0.01499999999999999944  1.0973220000 54.9553830000 41.7125250000
275      18   2 -0.01499999999999999944  2.9478600000 54.2423780000 42.6170450000
276      18   2 -0.01499999999999999944  1.0462070000 53.3103640000 43.1455040000
277      18   3 -0.64549999999999996270 -0.0002070000 55.9760590000 44.2958770000
278      18   3 -0.64549999999999996270  2.1802230000 55.1350950000 45.3613690000
279      18   4 -0.56599999999999994760  2.2063490000 57.0840960000 43.7504700000
280      18   5 -0.18429999999999999161  1.6402010000 54.4647960000 42.8406030000
281      18   5  0.02220000000000000098  1.5517450000 57.9796760000 42.7881070000
282      18   5  0.02220000000000000098  3.6720180000 57.1610660000 43.8230150000
283      18   6  0.07330000000000000404  4.0384990000 56.4885200000 44.5987580000
284      18   6  0.07330000000000000404  3.9424410000 58.1870630000 44.0910970000
285      18   6  0.07330000000000000404  4.1360020000 56.9054220000 42.8608250000
286      18   6  0.07330000000000000404  0.4691980000 57.8678720000 42.8579460000
287      18   6  0.07330000000000000404  1.8812250000 57.7764000000 41.7611470000
288      18   6  0.07330000000000000404  1.8150300000 59.0089440000 43.0526750000
289      19   1  1.60210000000000007958  1.6498390000 36.3315390000 35.9465120000
290      19   2 -0.01499999999999999944  4.1047680000 37.2460480000 36.4517780000
291      19   2 -0.01499999999999999944  3.6411130000 37.0630740000 34.3298520000
292      19   2 -0.01499999999999999944  2.7924480000 38.7028900000 35.4938850000
293      19   3 -0.64549999999999996270  1.2955390000 36.7074580000 37.3109660000
294      19   3 -0.64549999999999996270  0.7495490000 36.4926430000 34.8104630000
295      19   4 -0.56599999999999994760  2.2124530000 34.7783900000 35.9574280000
296      19   5 -0.18429999999999999161  3.1425690000 37.4165200000 35.5281630000
297      19   5  0.02220000000000000098  2.9657250000 34.2847660000 37.1174420000
298      19   5  0.02220000000000000098  2.4360090000 34.0766840000 34.6858130000
299      19   6  0.07330000000000000404  1.7929740000 34.4992970000 33.9136030000
300      19   6  0.07330000000000000404  2.1679040000 33.0254530000 34.8296850000
301      19   6  0.07330000000000000404  3.4861490000 34.1412150000 34.3703990000
302      19   6  0.07330000000000000404  2.6832910000 34.8483740000 38.0073080000
303      19   6  0.07330000000000000404  4.0485800000 34.3620720000 36.9562850000
304      19   6  0.07330000000000000404  2.6994010000 33.2337710000 37.2697260000
305      20   1  1.60210000000000007958 53.4364630000 32.2456390000 53.0255690000
306      20   2 -0.01499999999999999944 51.7878120000 33.5014930000 54.7057720000
307      20   2 -0.01499999999999999944 53.3498910000 34.7731860000 53.8728680000
308      20   2 -0.01499999999999999944 51.6460350000 34.1896670000 52.6397500000
309      20   3 -0.64549999999999996270 52.4154900000 31.2118010000 52.8937610000
310      20   3 -0.64549999999999996270 54.2555620000 32.7109250000 51.9121640000
311      20   4 -0.56599999999999994760 54.4320720000 31.8454390000 54.2815650000
312      20   5 -0.18429999999999999161 52.4862770000 33.7810500000 53.5913450000
313      20   5  0.02220000000000000098 53.8847190000 31.1437000000 55.4497610000
314      20   5  0.02220000000000000098 55.6731690000 32.6025080000 54.4958020000
315      20   6  0.07330000000000000404 56.0057580000 33.0392570000 53.5539740000
316      20   6  0.07330000000000000404 56.4376500000 31.9031130000 54.8480530000
317      20   6  0.07330000000000000404 55.5365930000 33.3946570000 55.2443290000
318      20   6  0.07330000000000000404 52.9961700000 30.5820410000 55.1594070000
319      20   6  0.07330000000000000404 53.6352420000 31.8426720000 56.2582930000
320      20   6  0.07330000000000000404 54.6433850000 30.4390220000 55.8055170000
321      21   1  1.60210000000000007958 23.2515520000 28.0343070000 17.4045030000
322      21   2 -0.01499999999999999944 21.4706060000 27.4954010000 19.3165990000
323      21   2 -0.01499999999999999944 21.3813320000 29.5398790000 18.5661550000
324      21   2 -0.01499999999999999944 20.5842560000 27.9014850000 17.3642650000
325      21   3 -0.64549999999999996270 23.3754140000 26.5951070000 17.1997070000
326      21   3 -0.64549999999999996270 23.2693390000 29.0041530000 16.3153890000