Generated by pymatgen.io.lammps.data.LammpsData

17204  atoms
16503  bonds
29942  angles
32181  dihedrals

   15  atom types
   14  bond types
   23  angle types
   20  dihedral types

-0.2500000000 60.2500000000  xlo xhi
-0.2500000000 60.2500000000  ylo yhi
-0.2500000000 60.2500000000  zlo zhi

Masses

1   15.99940
2   12.01070
3    1.00794
4   14.01000
5   32.06000
6   16.00000
7   12.01000
8   19.00000
9   16.00000
10  12.01000
11  12.01000
12   1.00800
13  32.06000
14  32.06000
15   6.94100

Pair Coeffs

1     0.1400  2.900000
2     0.0660  3.500000
3     0.0300  2.500000
4       0.17  3.249999
5       0.25  3.549340
6       0.21  2.959566
7      0.066  3.499450
8      0.053  2.948875
9       0.14  2.900000
10     0.066  3.500000
11     0.066  3.500000
12      0.03  2.500000
13  0.344001  3.590322
14  0.344001  3.590322
15  0.165057  1.506000

Bond Coeffs

1   320.00  1.410
2   268.00  1.529
3   340.00  1.090
4   441.80  1.323
5   235.40  1.818
6   637.10  1.442
7   372.00  1.570
8   320.00  1.410
9   320.00  1.380
10  268.00  1.529
11  340.00  1.090
12  340.00  1.090
13  157.87  2.133
14  154.36  2.117


Angle Coeffs

1    60.00  109.50
2    50.00  109.50
3    35.00  109.50
4    58.35  112.70
5    37.50  110.70
6    33.00  107.80
7    93.30  107.10
8    82.90  111.80
9   104.00  102.60
10  115.80  118.50
11   94.30  113.60
12   97.50  100.20
13   80.20  125.60
14   60.00  109.50
15   50.00  109.50
16   35.00  109.50
17   37.50  110.70
18   33.00  107.80
19   92.60  111.55
20   35.00  109.50
21   33.00  109.50
22   73.56  112.74
23   73.56  112.74


Dihedral Coeffs

1 3 0.062500000 1 0.000000000 -0.011000000 2 180.000000000 0.280500000 3 0.000000000
2 1 0.370500000 3 0.000000000
3 1 0.234000000 3 0.000000000
4 1 0.150000000 3 0.000000000
5 1 0.150000000 3 0.000000000
6 1 0.173400000 3 0.000000000
7 1 0.158000000 3 0.000000000
8 1 -0.001800000 3 0.000000000
9 3 3.916460000 1 0.000000000 -1.245000000 2 180.000000000 -0.381800000 3 0.000000000
10 3 0.062500000 1 0.000000000 -0.011000000 2 180.000000000 0.280500000 3 0.000000000
11 3 0.062500000 1 0.000000000 -0.011000000 2 180.000000000 0.280500000 3 0.000000000
12 1 0.370500000 3 0.000000000
13 1 0.370500000 3 0.000000000
14 3 -0.533500000 1 0.000000000 -0.783500000 2 180.000000000 0.337500000 3 0.000000000
15 1 0.370500000 3 0.000000000
16 3 1.119000000 1 0.000000000 -1.163500000 2 180.000000000 -0.341500000 3 0.000000000
17 1 0.234000000 3 0.000000000
18 1 0.150000000 3 0.000000000
19 4 5.431700000 1 0.000000000 -3.590000000 2 180.000000000 1.055600000 3 0.000000000 0.058320000 4 180.000000000
20 4 5.431700000 1 0.000000000 -3.590000000 2 180.000000000 1.055600000 3 0.000000000 0.058320000 4 180.000000000


Atoms

1         1   1 -0.40000000000000002220 35.1764170000 25.6639130000 50.5882330000
2         1   2  0.17000000000000001221 36.5525100000 25.9441080000 50.8701900000
3         1   2  0.17000000000000001221 34.4051120000 24.9642260000 51.5715950000
4         1   2 -0.17999999999999999334 37.3789860000 24.6733930000 51.0934230000
5         1   2 -0.17999999999999999334 37.0551460000 26.7463560000 49.6738960000
6         1   2 -0.17999999999999999334 34.3202350000 25.7181550000 52.9021910000
7         1   2 -0.17999999999999999334 33.0291860000 24.7679150000 50.9412190000
8         1   3  0.02999999999999999889 36.6185170000 26.5772640000 51.7698690000
9         1   3  0.02999999999999999889 34.8530540000 23.9727530000 51.7489000000
10        1   3  0.05999999999999999778 37.2746660000 23.9994290000 50.2350940000
11        1   3  0.05999999999999999778 38.4391730000 24.9313440000 51.2054990000
12        1   3  0.05999999999999999778 37.0744100000 24.1330050000 51.9964490000
13        1   3  0.05999999999999999778 36.4327620000 27.6352900000 49.5242400000
14        1   3  0.05999999999999999778 38.0918700000 27.0646430000 49.8292170000
15        1   3  0.05999999999999999778 37.0078270000 26.1367330000 48.7638730000
16        1   3  0.05999999999999999778 33.9357070000 26.7318980000 52.7375650000
17        1   3  0.05999999999999999778 33.6410670000 25.1963070000 53.5875710000
18        1   3  0.05999999999999999778 35.2942980000 25.7942350000 53.3992070000
19        1   3  0.05999999999999999778 33.1216420000 24.2470430000 49.9820510000
20        1   3  0.05999999999999999778 32.3813510000 24.1786360000 51.6017320000
21        1   3  0.05999999999999999778 32.5549030000 25.7390730000 50.7601130000
22        2   1 -0.40000000000000002220  6.2433780000 15.1861730000 40.9731890000
23        2   2  0.17000000000000001221  6.8254080000 16.4507130000 40.6358160000
24        2   2  0.17000000000000001221  7.0810780000 14.0244000000 40.9691230000
25        2   2 -0.17999999999999999334  7.4097970000 16.4714940000 39.2195990000
26        2   2 -0.17999999999999999334  5.7026130000 17.4699790000 40.8025250000
27        2   2 -0.17999999999999999334  8.2400720000 14.1280620000 41.9651580000
28        2   2 -0.17999999999999999334  6.1541980000 12.8567870000 41.2957070000
29        2   3  0.02999999999999999889  7.6244930000 16.6880010000 41.3568040000
30        2   3  0.02999999999999999889  7.4903590000 13.8732470000 39.9568240000
31        2   3  0.05999999999999999778  6.6459030000 16.1745930000 38.4914820000
32        2   3  0.05999999999999999778  7.7519910000 17.4834550000 38.9707300000
33        2   3  0.05999999999999999778  8.2679310000 15.7986100000 39.1143620000
34        2   3  0.05999999999999999778  5.2888860000 17.4169540000 41.8154320000
35        2   3  0.05999999999999999778  6.0726900000 18.4859470000 40.6262340000
36        2   3  0.05999999999999999778  4.8953260000 17.2620810000 40.0904230000
37        2   3  0.05999999999999999778  7.8561200000 14.3422860000 42.9698110000
38        2   3  0.05999999999999999778  8.7925530000 13.1809930000 41.9993190000
39        2   3  0.05999999999999999778  8.9529280000 14.9148360000 41.6923330000
40        2   3  0.05999999999999999778  5.3237440000 12.8200350000 40.5823670000
41        2   3  0.05999999999999999778  6.6993130000 11.9059200000 41.2519040000
42        2   3  0.05999999999999999778  5.7372090000 12.9758990000 42.3020990000
43        3   1 -0.40000000000000002220 41.8536490000 29.5014130000 16.2122890000
44        3   2  0.17000000000000001221 41.0280300000 29.4402720000 15.0434200000
45        3   2  0.17000000000000001221 42.7692890000 28.4282860000 16.4602320000
46        3   2 -0.17999999999999999334 40.1085460000 28.2146760000 15.0347590000
47        3   2 -0.17999999999999999334 40.2368230000 30.7446240000 15.0385680000
48        3   2 -0.17999999999999999334 43.7996480000 28.2597590000 15.3394920000
49        3   2 -0.17999999999999999334 43.4307930000 28.7617040000 17.7945220000
50        3   3  0.02999999999999999889 41.6677910000 29.4147240000 14.1463590000
51        3   3  0.02999999999999999889 42.2063880000 27.4874500000 16.5745900000
52        3   3  0.05999999999999999778 39.5082650000 28.1864580000 15.9516580000
53        3   3  0.05999999999999999778 39.4282490000 28.2632290000 14.1757260000
54        3   3  0.05999999999999999778 40.6682360000 27.2759420000 14.9588120000
55        3   3  0.05999999999999999778 40.9179240000 31.6020470000 15.0683630000
56        3   3  0.05999999999999999778 39.6173630000 30.8183310000 14.1379770000
57        3   3  0.05999999999999999778 39.5843150000 30.7935370000 15.9182630000
58        3   3  0.05999999999999999778 44.3272770000 29.2054870000 15.1667390000
59        3   3  0.05999999999999999778 44.5369430000 27.4967450000 15.6179630000
60        3   3  0.05999999999999999778 43.3392780000 27.9433060000 14.3963430000
61        3   3  0.05999999999999999778 42.6709010000 28.8986210000 18.5714880000
62        3   3  0.05999999999999999778 44.1089530000 27.9563350000 18.1022530000
63        3   3  0.05999999999999999778 44.0056630000 29.6907490000 17.7091240000
64        4   1 -0.40000000000000002220 11.1842260000 15.3607810000  3.0397460000
65        4   2  0.17000000000000001221 10.8981320000 13.9754550000  3.2648310000
66        4   2  0.17000000000000001221 12.5197930000 15.8284670000  3.2611110000
67        4   2 -0.17999999999999999334 11.1610750000 13.5469270000  4.7121870000
68        4   2 -0.17999999999999999334  9.4338010000 13.7966360000  2.8760830000
69        4   2 -0.17999999999999999334 13.5464260000 15.1315470000  2.3631000000
70        4   2 -0.17999999999999999334 12.4690310000 17.3320940000  3.0049600000
71        4   3  0.02999999999999999889 11.5174570000 13.3613390000  2.5910630000
72        4   3  0.02999999999999999889 12.7943500000 15.6626100000  4.3157290000
73        4   3  0.05999999999999999778 10.6029540000 14.1891460000  5.4034850000
74        4   3  0.05999999999999999778 10.8345150000 12.5104140000  4.8608360000
75        4   3  0.05999999999999999778 12.2236330000 13.5980950000  4.9740940000
76        4   3  0.05999999999999999778  9.2706780000 14.1318660000  1.8460480000
77        4   3  0.05999999999999999778  9.1379910000 12.7447270000  2.9548870000
78        4   3  0.05999999999999999778  8.7925120000 14.3919300000  3.5366850000
79        4   3  0.05999999999999999778 13.2558910000 15.2309260000  1.3103170000
80        4   3  0.05999999999999999778 14.5343270000 15.5897060000  2.4953240000
81        4   3  0.05999999999999999778 13.6450210000 14.0648160000  2.5954310000
82        4   3  0.05999999999999999778 11.7123390000 17.8008240000  3.6433700000
83        4   3  0.05999999999999999778 13.4420030000 17.7934070000  3.2140880000
84        4   3  0.05999999999999999778 12.2054020000 17.5282360000  1.9595320000
85        5   1 -0.40000000000000002220 40.7949160000  9.4487980000 47.5303260000
86        5   2  0.17000000000000001221 40.6504510000 10.5658030000 48.4152380000
87        5   2  0.17000000000000001221 39.6193600000  8.9002880000 46.9231370000
88        5   2 -0.17999999999999999334 39.7717670000 10.2462960000 49.6290920000
89        5   2 -0.17999999999999999334 42.0706300000 10.9433160000 48.8250420000
90        5   2 -0.17999999999999999334 38.8762260000  9.9161210000 46.0502490000
91        5   2 -0.17999999999999999334 40.1050040000  7.7021980000 46.1120800000
92        5   3  0.02999999999999999889 40.2075640000 11.4117570000 47.8648930000
93        5   3  0.02999999999999999889 38.9380760000  8.5368430000 47.7098190000
94        5   3  0.05999999999999999778 40.1595280000  9.3658240000 50.1546850000
95        5   3  0.05999999999999999778 39.7721240000 11.0941630000 50.3249500000
96        5   3  0.05999999999999999778 38.7308770000 10.0510430000 49.3486150000
97        5   3  0.05999999999999999778 42.6813240000 11.1435300000 47.9379520000
98        5   3  0.05999999999999999778 42.0661430000 11.8372640000 49.4583370000
99        5   3  0.05999999999999999778 42.5338900000 10.1207030000 49.3824660000
100       5   3  0.05999999999999999778 39.5559710000 10.3374950000 45.2998960000
101       5   3  0.05999999999999999778 38.0441920000  9.4268000000 45.5290720000
102       5   3  0.05999999999999999778 38.4564570000 10.7404730000 46.6383400000
103       5   3  0.05999999999999999778 40.6513030000  7.0041530000 46.7556230000
104       5   3  0.05999999999999999778 39.2581560000  7.1738120000 45.6572460000
105       5   3  0.05999999999999999778 40.7799400000  8.0343880000 45.3152080000
106       6   1 -0.40000000000000002220 57.3254890000 29.3555360000 53.4613310000
107       6   2  0.17000000000000001221 57.1374780000 28.1804900000 54.2585500000
108       6   2  0.17000000000000001221 58.0153600000 30.4704880000 54.0379020000
109       6   2 -0.17999999999999999334 56.3210210000 28.4527210000 55.5261860000
110       6   2 -0.17999999999999999334 56.4459910000 27.1762030000 53.3416970000
111       6   2 -0.17999999999999999334 59.4476900000 30.1263700000 54.4575570000
112       6   2 -0.17999999999999999334 57.9825910000 31.5614390000 52.9712080000
113       6   3  0.02999999999999999889 58.1207510000 27.7739790000 54.5459320000
114       6   3  0.02999999999999999889 57.4589200000 30.8273050000 54.9200380000
115       6   3  0.05999999999999999778 55.3632030000 28.9181250000 55.2657610000
116       6   3  0.05999999999999999778 56.1182320000 27.5107390000 56.0502520000
117       6   3  0.05999999999999999778 56.8469840000 29.1119020000 56.2255320000
118       6   3  0.05999999999999999778 57.0396460000 27.0186460000 52.4346630000
119       6   3  0.05999999999999999778 56.3165150000 26.2139490000 53.8491710000
120       6   3  0.05999999999999999778 55.4596250000 27.5523010000 53.0456280000
121       6   3  0.05999999999999999778 60.0000690000 29.7090470000 53.6070520000
122       6   3  0.05999999999999999778 59.9670800000 31.0302540000 54.7989780000
123       6   3  0.05999999999999999778 59.4768230000 29.4005730000 55.2785220000
124       6   3  0.05999999999999999778 56.9493570000 31.7713100000 52.6741580000
125       6   3  0.05999999999999999778 58.4358020000 32.4860710000 53.3491930000
126       6   3  0.05999999999999999778 58.5361060000 31.2373570000 52.0826780000
127       7   1 -0.40000000000000002220 48.6079180000 54.5132400000 34.1399050000
128       7   2  0.17000000000000001221 47.9189950000 53.4361290000 33.4942600000
129       7   2  0.17000000000000001221 47.9767220000 55.7980520000 34.1881210000
130       7   2 -0.17999999999999999334 47.6365360000 53.7195810000 32.0152440000
131       7   2 -0.17999999999999999334 48.8149860000 52.2151590000 33.6780960000
132       7   2 -0.17999999999999999334 46.6385720000 55.7714820000 34.9329320000
133       7   2 -0.17999999999999999334 48.9865230000 56.7190960000 34.8671400000
134       7   3  0.02999999999999999889 46.9640220000 53.2516830000 34.0125960000
135       7   3  0.02999999999999999889 47.8084580000 56.1606730000 33.1608420000
136       7   3  0.05999999999999999778 48.5680560000 53.9694850000 31.4940390000
137       7   3  0.05999999999999999778 47.2004930000 52.8320210000 31.5406900000
138       7   3  0.05999999999999999778 46.9309800000 54.5463910000 31.8780670000
139       7   3  0.05999999999999999778 49.0187610000 52.0503460000 34.7417100000
140       7   3  0.05999999999999999778 48.3367000000 51.3187410000 33.2683350000
141       7   3  0.05999999999999999778 49.7715870000 52.3682650000 33.1647780000
142       7   3  0.05999999999999999778 46.7742000000 55.3531860000 35.9375570000
143       7   3  0.05999999999999999778 46.2425990000 56.7897390000 35.0314220000
144       7   3  0.05999999999999999778 45.8833840000 55.1743660000 34.4087590000
145       7   3  0.05999999999999999778 49.9395180000 56.7015670000 34.3273720000
146       7   3  0.05999999999999999778 48.6140030000 57.7505170000 34.8919850000
147       7   3  0.05999999999999999778 49.1683530000 56.3870650000 35.8955300000
148       8   1 -0.40000000000000002220 48.9561070000 16.5112480000 46.7104060000
149       8   2  0.17000000000000001221 49.8506100000 15.4331450000 46.4117470000
150       8   2  0.17000000000000001221 48.1434030000 17.0383800000 45.6553620000
151       8   2 -0.17999999999999999334 50.8908140000 15.8070850000 45.3507300000
152       8   2 -0.17999999999999999334 50.5016260000 15.0675510000 47.7421170000
153       8   2 -0.17999999999999999334 47.2033620000 15.9896320000 45.0532430000
154       8   2 -0.17999999999999999334 47.3740180000 18.1992400000 46.2794890000
155       8   3  0.02999999999999999889 49.2705240000 14.5665200000 46.0551980000
156       8   3  0.02999999999999999889 48.7929060000 17.4374100000 44.8591030000
157       8   3  0.05999999999999999778 51.4360980000 16.7073740000 45.6572950000
158       8   3  0.05999999999999999778 51.6115480000 14.9893220000 45.2286410000
159       8   3  0.05999999999999999778 50.4365980000 15.9945140000 44.3715470000
160       8   3  0.05999999999999999778 49.7349480000 14.8276530000 48.4868420000
161       8   3  0.05999999999999999778 51.1617850000 14.2011300000 47.6249300000
162       8   3  0.05999999999999999778 51.0929690000 15.9110720000 48.1173610000
163       8   3  0.05999999999999999778 46.5917920000 15.5342620000 45.8414430000
164       8   3  0.05999999999999999778 46.5338870000 16.4598750000 44.3224790000
165       8   3  0.05999999999999999778 47.7483910000 15.1925070000 44.5344480000
166       8   3  0.05999999999999999778 48.0688960000 18.9216050000 46.7212940000
167       8   3  0.05999999999999999778 46.7659260000 18.7113720000 45.5237350000
168       8   3  0.05999999999999999778 46.7121550000 17.8310330000 47.0714820000
169       9   1 -0.40000000000000002220 48.4653910000 40.0524980000 47.9607660000
170       9   2  0.17000000000000001221 47.0519410000 39.8333630000 48.0367850000
171       9   2  0.17000000000000001221 49.0461550000 40.3359800000 46.6825540000
172       9   2 -0.17999999999999999334 46.5948430000 38.6373380000 47.1952380000
173       9   2 -0.17999999999999999334 46.7530200000 39.6327930000 49.5192770000
174       9   2 -0.17999999999999999334 48.4821540000 41.6102300000 46.0467190000
175       9   2 -0.17999999999999999334 50.5472530000 40.4439920000 46.9357810000
176       9   3  0.02999999999999999889 46.5240130000 40.7371470000 47.6916290000
177       9   3  0.02999999999999999889 48.8664370000 39.4863480000 46.0036330000
178       9   3  0.05999999999999999778 47.1557410000 37.7392870000 47.4793770000
179       9   3  0.05999999999999999778 45.5276060000 38.4477090000 47.3629970000
180       9   3  0.05999999999999999778 46.7343240000 38.8070210000 46.1219280000
181       9   3  0.05999999999999999778 47.1106560000 40.4911520000 50.0983080000
182       9   3  0.05999999999999999778 45.6759760000 39.5203760000 49.6853030000
183       9   3  0.05999999999999999778 47.2606860000 38.7338890000 49.8884250000
184       9   3  0.05999999999999999778 48.5941780000 42.4567040000 46.7348840000
185       9   3  0.05999999999999999778 49.0245900000 41.8408410000 45.1215570000
186       9   3  0.05999999999999999778 47.4210950000 41.5115050000 45.7897760000
187       9   3  0.05999999999999999778 50.9191330000 39.5295640000 47.4105250000
188       9   3  0.05999999999999999778 51.0885130000 40.5979460000 45.9942110000
189       9   3  0.05999999999999999778 50.7577660000 41.2872800000 47.6031970000
190      10   1 -0.40000000000000002220  3.1352330000  5.1148020000 27.6875600000
191      10   2  0.17000000000000001221  1.7445120000  5.1790330000 28.0243240000
192      10   2  0.17000000000000001221  3.8207910000  3.8672610000 27.8460680000
193      10   2 -0.17999999999999999334  1.4780360000  4.8417860000 29.4949940000
194      10   2 -0.17999999999999999334  1.3101320000  6.6001500000 27.6792100000
195      10   2 -0.17999999999999999334  3.2229350000  2.7508020000 26.9845670000
196      10   2 -0.17999999999999999334  5.2732030000  4.1544630000 27.4757990000
197      10   3  0.02999999999999999889  1.1826680000  4.4761790000 27.3879320000
198      10   3  0.02999999999999999889  3.7836590000  3.5624860000 28.9047660000
199      10   3  0.05999999999999999778  2.0784500000  5.4884580000 30.1454970000
200      10   3  0.05999999999999999778  0.4184410000  5.0011010000 29.7294640000
201      10   3  0.05999999999999999778  1.7142510000  3.7984380000 29.7313620000
202      10   3  0.05999999999999999778  1.5333020000  6.8211810000 26.6297810000
203      10   3  0.05999999999999999778  0.2346230000  6.7271940000 27.8446420000
204      10   3  0.05999999999999999778  1.8489880000  7.3218470000 28.3043580000
205      10   3  0.05999999999999999778  3.1922700000  3.0609460000 25.9331360000
206      10   3  0.05999999999999999778  3.8380350000  1.8457950000 27.0617450000
207      10   3  0.05999999999999999778  2.2062700000  2.4848720000 27.2964750000
208      10   3  0.05999999999999999778  5.6677460000  4.9705030000 28.0908370000
209      10   3  0.05999999999999999778  5.8951800000  3.2641360000 27.6296860000
210      10   3  0.05999999999999999778  5.3425810000  4.4531160000 26.4237120000
211      11   1 -0.40000000000000002220 40.6871640000 12.8168350000 24.2863350000
212      11   2  0.17000000000000001221 39.9811570000 12.4217020000 25.4683100000
213      11   2  0.17000000000000001221 41.9557410000 12.2109700000 24.0122650000
214      11   2 -0.17999999999999999334 40.7684880000 12.7127370000 26.7501140000
215      11   2 -0.17999999999999999334 38.6616250000 13.1861500000 25.4256850000
216      11   2 -0.17999999999999999334 41.8610730000 10.6913750000 23.8450360000
217      11   2 -0.17999999999999999334 42.4629210000 12.8914750000 22.7438930000
218      11   3  0.02999999999999999889 39.7631040000 11.3425020000 25.4188460000
219      11   3  0.02999999999999999889 42.6540210000 12.4386860000 24.8342490000
220      11   3  0.05999999999999999778 41.0517850000 13.7711350000 26.7871810000
221      11   3  0.05999999999999999778 40.1506940000 12.4877080000 27.6280610000
222      11   3  0.05999999999999999778 41.6790970000 12.1081880000 26.8246450000
223      11   3  0.05999999999999999778 38.1318550000 12.9773820000 24.4898850000
224      11   3  0.05999999999999999778 38.0197950000 12.8977160000 26.2653800000
225      11   3  0.05999999999999999778 38.8484980000 14.2650420000 25.4812910000
226      11   3  0.05999999999999999778 41.1223940000 10.4419810000 23.0738060000
227      11   3  0.05999999999999999778 42.8330820000 10.2853410000 23.5389690000
228      11   3  0.05999999999999999778 41.5729310000 10.1884000000 24.7754140000
229      11   3  0.05999999999999999778 42.4992990000 13.9772540000 22.8839550000
230      11   3  0.05999999999999999778 43.4683500000 12.5347250000 22.4888270000
231      11   3  0.05999999999999999778 41.7911250000 12.6758630000 21.9053850000
232      12   1 -0.40000000000000002220 16.1676460000 12.3226580000 30.6995320000
233      12   2  0.17000000000000001221 17.5277500000 11.9175800000 30.8936140000
234      12   2  0.17000000000000001221 15.1772970000 11.8607650000 31.6254580000
235      12   2 -0.17999999999999999334 17.7042190000 10.3968080000 30.8325820000
236      12   2 -0.17999999999999999334 18.3207130000 12.6262670000 29.7998420000
237      12   2 -0.17999999999999999334 15.4531860000 12.3159130000 33.0617120000
238      12   2 -0.17999999999999999334 13.8505190000 12.4040570000 31.1024100000
239      12   3  0.02999999999999999889 17.8797260000 12.2802290000 31.8730350000
240      12   3  0.02999999999999999889 15.1387450000 10.7594330000 31.5992130000
241      12   3  0.05999999999999999778 17.3002640000 10.0072690000 29.8908190000
242      12   3  0.05999999999999999778 18.7695700000 10.1412230000 30.8855190000
243      12   3  0.05999999999999999778 17.2016890000  9.8866570000 31.6617100000
244      12   3  0.05999999999999999778 18.1577560000 13.7081980000 29.8530410000
245      12   3  0.05999999999999999778 19.3924580000 12.4260620000 29.9071220000
246      12   3  0.05999999999999999778 17.9958260000 12.2781120000 28.8122900000
247      12   3  0.05999999999999999778 15.5585810000 13.4068780000 33.0980920000
248      12   3  0.05999999999999999778 14.6209590000 12.0255850000 33.7147420000
249      12   3  0.05999999999999999778 16.3650480000 11.8665170000 33.4717910000
250      12   3  0.05999999999999999778 13.6897060000 12.0822410000 30.0677940000
251      12   3  0.05999999999999999778 13.0160030000 12.0452740000 31.7172880000
252      12   3  0.05999999999999999778 13.8563950000 13.4996790000 31.1241130000
253      13   1 -0.40000000000000002220 29.4368260000 25.0890000000 47.3357400000
254      13   2  0.17000000000000001221 29.1479890000 26.1177660000 48.2896030000
255      13   2  0.17000000000000001221 28.8233200000 23.8060130000 47.5061210000
256      13   2 -0.17999999999999999334 29.5702520000 25.7375780000 49.7125450000
257      13   2 -0.17999999999999999334 29.8883640000 27.3537140000 47.7879630000
258      13   2 -0.17999999999999999334 27.2936340000 23.8721630000 47.4639080000
259      13   2 -0.17999999999999999334 29.3854430000 22.9371740000 46.3844160000
260      13   3  0.02999999999999999889 28.0663860000 26.3292570000 48.2811400000
261      13   3  0.02999999999999999889 29.1374020000 23.3767290000 48.4716130000
262      13   3  0.05999999999999999778 30.6307750000 25.4604330000 49.7303980000
263      13   3  0.05999999999999999778 29.4226960000 26.5898470000 50.3870530000
264      13   3  0.05999999999999999778 28.9869980000 24.8991790000 50.1089610000
265      13   3  0.05999999999999999778 29.5843340000 27.5881800000 46.7620230000
266      13   3  0.05999999999999999778 29.6737360000 28.2187400000 48.4250580000
267      13   3  0.05999999999999999778 30.9698620000 27.1738300000 47.7931190000
268      13   3  0.05999999999999999778 26.9623360000 24.3553350000 46.5368570000
269      13   3  0.05999999999999999778 26.8722700000 22.8599080000 47.4975590000
270      13   3  0.05999999999999999778 26.8785550000 24.4293740000 48.3117520000
271      13   3  0.05999999999999999778 30.4800140000 22.9258350000 46.4249420000
272      13   3  0.05999999999999999778 29.0184350000 21.9071730000 46.4717100000
273      13   3  0.05999999999999999778 29.0821560000 23.3360910000 45.4098520000
274      14   1 -0.40000000000000002220 12.2797160000 30.3659450000 34.9741210000
275      14   2  0.17000000000000001221 12.1539370000 31.7891150000 35.0761400000
276      14   2  0.17000000000000001221 12.1566080000 29.7589180000 33.6826730000
277      14   2 -0.17999999999999999334 10.7871680000 32.2953760000 34.6036390000
278      14   2 -0.17999999999999999334 12.4029530000 32.1127020000 36.5460540000
279      14   2 -0.17999999999999999334 13.2166070000 30.2534690000 32.6937760000
280      14   2 -0.17999999999999999334 12.2672670000 28.2570210000 33.9299480000
281      14   3  0.02999999999999999889 12.9418940000 32.2687130000 34.4730020000
282      14   3  0.02999999999999999889 11.1559330000 29.9729080000 33.2728370000
283      14   3  0.05999999999999999778  9.9856450000 31.7819410000 35.1474970000
284      14   3  0.05999999999999999778 10.7009240000 33.3722670000 34.7932840000
285      14   3  0.05999999999999999778 10.6336590000 32.1367460000 33.5305530000
286      14   3  0.05999999999999999778 13.3753620000 31.7195630000 36.8620000000
287      14   3  0.05999999999999999778 12.3904900000 33.1956010000 36.7115890000
288      14   3  0.05999999999999999778 11.6274740000 31.6533490000 37.1702730000
289      14   3  0.05999999999999999778 14.2198920000 30.1073400000 33.1117510000
290      14   3  0.05999999999999999778 13.1464790000 29.6909360000 31.7546390000
291      14   3  0.05999999999999999778 13.0944930000 31.3153840000 32.4507990000
292      14   3  0.05999999999999999778 11.5133530000 27.9351280000 34.6564850000
293      14   3  0.05999999999999999778 12.1191360000 27.6992350000 32.9971300000
294      14   3  0.05999999999999999778 13.2572050000 28.0124660000 34.3313310000
295      15   1 -0.40000000000000002220 43.4991200000 55.1619600000 39.9272470000
296      15   2  0.17000000000000001221 42.9037070000 56.4448390000 39.7006530000
297      15   2  0.17000000000000001221 43.6934920000 54.2903420000 38.8074360000
298      15   2 -0.17999999999999999334 41.4921320000 56.3440160000 39.1133680000
299      15   2 -0.17999999999999999334 42.9057810000 57.1373510000 41.0599860000
300      15   2 -0.17999999999999999334 44.6120510000 54.8943480000 37.7408890000
301      15   2 -0.17999999999999999334 44.2707510000 53.0041760000 39.3919300000
302      15   3  0.02999999999999999889 43.5383940000 57.0243820000 39.0107480000
303      15   3  0.02999999999999999889 42.7170360000 54.0594380000 38.3510100000
304      15   3  0.05999999999999999778 40.8608890000 55.7163020000 39.7531670000
305      15   3  0.05999999999999999778 41.0403820000 57.3416070000 39.0514600000
306      15   3  0.05999999999999999778 41.4916720000 55.9191760000 38.1035400000
307      15   3  0.05999999999999999778 43.9226420000 57.1746070000 41.4656530000
308      15   3  0.05999999999999999778 42.5234980000 58.1604210000 40.9738680000
309      15   3  0.05999999999999999778 42.2743630000 56.5850670000 41.7659010000
310      15   3  0.05999999999999999778 45.5679310000 55.1900420000 38.1897730000
311      15   3  0.05999999999999999778 44.8114960000 54.1561360000 36.9543740000
312      15   3  0.05999999999999999778 44.1684640000 55.7743830000 37.2609060000
313      15   3  0.05999999999999999778 43.6056280000 52.6068470000 40.1662680000
314      15   3  0.05999999999999999778 44.3947390000 52.2451360000 38.6098150000
315      15   3  0.05999999999999999778 45.2478930000 53.2016330000 39.8470110000
316      16   1 -0.40000000000000002220 19.6472960000 50.5993380000 51.2429120000
317      16   2  0.17000000000000001221 20.3203770000 51.3014660000 52.2943950000
318      16   2  0.17000000000000001221 18.4330860000 51.1504380000 50.7199830000
319      16   2 -0.17999999999999999334 19.4573040000 51.4480330000 53.5518680000
320      16   2 -0.17999999999999999334 21.5903580000 50.5012120000 52.5666190000
321      16   2 -0.17999999999999999334 18.6298050000 52.5421840000 50.1113430000
322      16   2 -0.17999999999999999334 17.9445260000 50.1415000000 49.6843960000
323      16   3  0.02999999999999999889 20.6072030000 52.3040380000 51.9376790000
324      16   3  0.02999999999999999889 17.6842660000 51.2140510000 51.5264130000
325      16   3  0.05999999999999999778 19.1073070000 50.4644580000 53.8864100000
326      16   3  0.05999999999999999778 20.0461000000 51.9001610000 54.3593310000
327      16   3  0.05999999999999999778 18.5835670000 52.0872540000 53.3838730000
328      16   3  0.05999999999999999778 22.1753310000 50.3927140000 51.6468380000
329      16   3  0.05999999999999999778 22.2088520000 51.0010340000 53.3201910000
330      16   3  0.05999999999999999778 21.3343490000 49.4993840000 52.9310670000
331      16   3  0.05999999999999999778 19.4178720000 52.5127510000 49.3492920000
332      16   3  0.05999999999999999778 17.7003330000 52.8799650000 49.6366560000