Generated by pymatgen.io.lammps.data.LammpsData

16732  atoms
16068  bonds
28878  angles
29712  dihedrals

   16  atom types
   15  bond types
   26  angle types
   26  dihedral types

-0.2500000000 60.2500000000  xlo xhi
-0.2500000000 60.2500000000  ylo yhi
-0.2500000000 60.2500000000  zlo zhi

Masses

1   18.998403
2   15.999400
3   12.010700
4    1.007940
5   14.010000
6   32.060000
7   16.000000
8   12.010000
9   19.000000
10  16.000000
11  12.010000
12  12.010000
13   1.008000
14  32.060000
15  32.060000
16   6.941000

Pair Coeffs

1     0.0530  2.950000
2     0.1400  2.900000
3     0.0620  3.250000
4     0.0300  2.500000
5       0.17  3.249999
6       0.25  3.549340
7       0.21  2.959566
8      0.066  3.499450
9      0.053  2.948875
10      0.14  2.900000
11     0.066  3.500000
12     0.066  3.500000
13      0.03  2.500000
14  0.344001  3.590322
15  0.344001  3.590322
16  0.165057  1.506000

Bond Coeffs

1   367.00  1.332
2   320.00  1.410
3   268.00  1.529
4   340.00  1.090
5   441.80  1.323
6   235.40  1.818
7   637.10  1.442
8   372.00  1.570
9   320.00  1.410
10  320.00  1.380
11  268.00  1.529
12  340.00  1.090
13  340.00  1.090
14  157.87  2.133
15  154.36  2.117


Angle Coeffs

1    60.00  109.50
2    77.00  109.10
3    50.00  109.50
4    58.35  112.70
5    50.00  109.50
6    35.00  109.50
7    37.50  110.70
8    33.00  107.80
9    40.00  107.00
10   93.30  107.10
11   82.90  111.80
12  104.00  102.60
13  115.80  118.50
14   94.30  113.60
15   97.50  100.20
16   80.20  125.60
17   60.00  109.50
18   50.00  109.50
19   35.00  109.50
20   37.50  110.70
21   33.00  107.80
22   92.60  111.55
23   35.00  109.50
24   33.00  109.50
25   73.56  112.74
26   73.56  112.74


Dihedral Coeffs

1 3 0.062500000 1 0.000000000 -0.011000000 2 180.000000000 0.280500000 3 0.000000000
2 1 0.370500000 3 0.000000000
3 2 0.518500000 1 0.000000000 -0.728500000 2 180.000000000
4 1 0.221000000 3 0.000000000
5 3 0.627500000 1 0.000000000 -0.309500000 2 180.000000000 0.273000000 3 0.000000000
6 1 0.150000000 3 0.000000000
7 3 0.301000000 1 0.000000000 -1.359500000 2 180.000000000 0.367000000 3 0.000000000
8 3 0.396500000 1 0.000000000 -0.183500000 2 180.000000000 0.414500000 3 0.000000000
9 3 1.119000000 1 0.000000000 -1.163500000 2 180.000000000 -0.341500000 3 0.000000000
10 1 0.234000000 3 0.000000000
11 1 0.150000000 3 0.000000000
12 1 0.173400000 3 0.000000000
13 1 0.158000000 3 0.000000000
14 1 -0.001800000 3 0.000000000
15 3 3.916460000 1 0.000000000 -1.245000000 2 180.000000000 -0.381800000 3 0.000000000
16 3 0.062500000 1 0.000000000 -0.011000000 2 180.000000000 0.280500000 3 0.000000000
17 3 0.062500000 1 0.000000000 -0.011000000 2 180.000000000 0.280500000 3 0.000000000
18 1 0.370500000 3 0.000000000
19 1 0.370500000 3 0.000000000
20 3 -0.533500000 1 0.000000000 -0.783500000 2 180.000000000 0.337500000 3 0.000000000
21 1 0.370500000 3 0.000000000
22 3 1.119000000 1 0.000000000 -1.163500000 2 180.000000000 -0.341500000 3 0.000000000
23 1 0.234000000 3 0.000000000
24 1 0.150000000 3 0.000000000
25 4 5.431700000 1 0.000000000 -3.590000000 2 180.000000000 1.055600000 3 0.000000000 0.058320000 4 180.000000000
26 4 5.431700000 1 0.000000000 -3.590000000 2 180.000000000 1.055600000 3 0.000000000 0.058320000 4 180.000000000


Atoms

1         1   1 -0.11999999999999999556 32.7699060000 12.4842040000 56.2941750000
2         1   1 -0.11999999999999999556 32.3089250000 10.7613280000 54.9900780000
3         1   1 -0.11999999999999999556 30.9313070000 10.6844410000 57.3147940000
4         1   1 -0.11999999999999999556 32.4787020000  9.1020180000 57.2636810000
5         1   2 -0.40000000000000002220 35.0474630000 11.0630070000 57.2341370000
6         1   2 -0.40000000000000002220 37.5288350000 12.3961960000 56.5334380000
7         1   3  0.23999999999999999112 32.9480330000 11.1339170000 56.1433520000
8         1   3  0.14000000000000001332 34.4253260000 10.8042030000 55.9947110000
9         1   3  0.14000000000000001332 36.3467640000 10.4980130000 57.3879320000
10        1   3  0.08999999999999999667 32.2733070000 10.4556740000 57.3485110000
11        1   3  0.14000000000000001332 37.3832840000 10.9992780000 56.3929800000
12        1   3  0.11000000000000000056 38.4730550000 12.9532610000 55.6359180000
13        1   4  0.02999999999999999889 34.5103780000  9.7462880000 55.7078010000
14        1   4  0.02999999999999999889 34.8233100000 11.4324970000 55.1870180000
15        1   4  0.02999999999999999889 36.6504430000 10.7697070000 58.4026710000
16        1   4  0.02999999999999999889 36.2896920000  9.3984980000 57.3162310000
17        1   4  0.14999999999999999445 32.6816330000 10.8199680000 58.2922650000
18        1   4  0.02999999999999999889 38.3349530000 10.4783900000 56.6031290000
19        1   4  0.02999999999999999889 37.0972590000 10.7425890000 55.3581350000
20        1   4  0.02999999999999999889 39.4788310000 12.5326560000 55.7979640000
21        1   4  0.02999999999999999889 38.1810160000 12.7795420000 54.5880810000
22        1   4  0.02999999999999999889 38.4986800000 14.0290200000 55.8281540000
23        2   1 -0.11999999999999999556 16.8748540000  1.1813660000  7.5959480000
24        2   1 -0.11999999999999999556 17.3740960000  0.5408010000  9.6506770000
25        2   1 -0.11999999999999999556 14.7056840000  0.6805830000  9.2406900000
26        2   1 -0.11999999999999999556 15.3804260000  2.2981850000 10.5931670000
27        2   2 -0.40000000000000002220 17.2022340000  3.8775150000  8.4410480000
28        2   2 -0.40000000000000002220 19.4093680000  5.1844740000  7.0823740000
29        2   3  0.23999999999999999112 16.8787110000  1.5795690000  8.9071190000
30        2   3  0.14000000000000001332 17.7949190000  2.7785110000  9.0976490000
31        2   3  0.14000000000000001332 17.7353700000  5.1513900000  8.7932750000
32        2   3  0.08999999999999999667 15.4142890000  1.8419650000  9.2999220000
33        2   3  0.14000000000000001332 19.2109420000  5.3375960000  8.4714290000
34        2   3  0.11000000000000000056 20.7627980000  5.3339420000  6.6908330000
35        2   4  0.02999999999999999889 17.9017510000  2.9566020000 10.1772810000
36        2   4  0.02999999999999999889 18.7733990000  2.5157520000  8.6745090000
37        2   4  0.02999999999999999889 17.1414110000  5.8697940000  8.2215740000
38        2   4  0.02999999999999999889 17.5811650000  5.3391370000  9.8695210000
39        2   4  0.14999999999999999445 14.9525250000  2.5844480000  8.6475380000
40        2   4  0.02999999999999999889 19.5059080000  6.3489940000  8.8049410000
41        2   4  0.02999999999999999889 19.8336150000  4.6190820000  9.0323380000
42        2   4  0.02999999999999999889 21.1437690000  6.3387570000  6.9357000000
43        2   4  0.02999999999999999889 21.4059080000  4.5831140000  7.1767270000
44        2   4  0.02999999999999999889 20.7984560000  5.1907140000  5.6077430000
45        3   1 -0.11999999999999999556 20.8314830000  6.0251080000 49.7503030000
46        3   1 -0.11999999999999999556 19.1523390000  6.4911520000 48.3920870000
47        3   1 -0.11999999999999999556 20.7974180000  4.6014190000 47.3768650000
48        3   1 -0.11999999999999999556 20.9928040000  6.5003640000 46.2557310000
49        3   2 -0.40000000000000002220 22.2211880000  8.2603990000 48.6719760000
50        3   2 -0.40000000000000002220 22.6855130000 10.3191180000 50.6648770000
51        3   3  0.23999999999999999112 20.5034990000  6.6352300000 48.5679630000
52        3   3  0.14000000000000001332 20.8178740000  8.1220160000 48.6299070000
53        3   3  0.14000000000000001332 22.7081140000  9.5700560000 48.3913460000
54        3   3  0.08999999999999999667 21.2512900000  5.8830640000 47.4531840000
55        3   3  0.14000000000000001332 22.2461310000 10.6454350000 49.3638180000
56        3   3  0.11000000000000000056 22.2914670000 11.2660990000 51.6423070000
57        3   4  0.02999999999999999889 20.3868750000  8.5981260000 47.7375540000
58        3   4  0.02999999999999999889 20.3302140000  8.5245930000 49.5274770000
59        3   4  0.02999999999999999889 23.7968230000  9.4780400000 48.4358310000
60        3   4  0.02999999999999999889 22.4179340000  9.8682790000 47.3694890000
61        3   4  0.14999999999999999445 22.3282540000  5.8786790000 47.6270820000
62        3   4  0.02999999999999999889 22.6725040000 11.6092250000 49.0314400000
63        3   4  0.02999999999999999889 21.1478520000 10.7547200000 49.3428110000
64        3   4  0.02999999999999999889 22.7110330000 12.2627000000 51.4289880000
65        3   4  0.02999999999999999889 21.1945870000 11.3486860000 51.7011390000
66        3   4  0.02999999999999999889 22.6771330000 10.9122490000 52.6019530000
67        4   1 -0.11999999999999999556 22.2414810000 38.4323980000 21.9487630000
68        4   1 -0.11999999999999999556 23.4068230000 38.1087900000 20.0997820000
69        4   1 -0.11999999999999999556 20.8382590000 37.3049310000 19.8461350000
70        4   1 -0.11999999999999999556 22.2072230000 35.5656090000 19.8885990000
71        4   2 -0.40000000000000002220 23.2482520000 35.9569700000 22.9230650000
72        4   2 -0.40000000000000002220 24.9109860000 36.3078790000 25.2763080000
73        4   3  0.23999999999999999112 22.8122390000 37.4708980000 21.1566110000
74        4   3  0.14000000000000001332 23.8890040000 36.7184800000 21.9231910000
75        4   3  0.14000000000000001332 24.0499920000 34.9369560000 23.5128440000
76        4   3  0.08999999999999999667 21.6696180000 36.5776560000 20.6425950000
77        4   3  0.14000000000000001332 25.2935420000 35.4379530000 24.2326740000
78        4   3  0.11000000000000000056 26.0110380000 36.8317570000 25.9993940000
79        4   4  0.02999999999999999889 24.4322290000 36.0820430000 21.2100380000
80        4   4  0.02999999999999999889 24.5775160000 37.4644150000 22.3415760000
81        4   4  0.02999999999999999889 23.3876330000 34.4399060000 24.2269550000
82        4   4  0.02999999999999999889 24.3556990000 34.2071330000 22.7439270000
83        4   4  0.14999999999999999445 21.0994920000 36.1449260000 21.4658900000
84        4   4  0.02999999999999999889 25.8343100000 34.5588320000 24.6274860000
85        4   4  0.02999999999999999889 25.9778080000 35.9499780000 23.5339510000
86        4   4  0.02999999999999999889 26.5945860000 36.0301030000 26.4806170000
87        4   4  0.02999999999999999889 26.6801090000 37.4133720000 25.3455640000
88        4   4  0.02999999999999999889 25.6010430000 37.4894530000 26.7702440000
89        5   1 -0.11999999999999999556 17.9441360000 26.7878060000 44.8937710000
90        5   1 -0.11999999999999999556 15.9008510000 27.1253630000 45.6635210000
91        5   1 -0.11999999999999999556 16.1693890000 27.9104650000 43.0906720000
92        5   1 -0.11999999999999999556 15.9446060000 29.6599710000 44.4285100000
93        5   2 -0.40000000000000002220 18.7079100000 29.2680610000 46.0580630000
94        5   2 -0.40000000000000002220 20.6796020000 28.9232000000 48.1602220000
95        5   3  0.23999999999999999112 17.0579290000 27.7557960000 45.2879570000
96        5   3  0.14000000000000001332 17.5968790000 28.5142040000 46.4910990000
97        5   3  0.14000000000000001332 19.1297640000 30.2924680000 46.9545470000
98        5   3  0.08999999999999999667 16.7865840000 28.6417930000 44.0595200000
99        5   3  0.14000000000000001332 19.5842430000 29.7988950000 48.3203450000
100       5   3  0.11000000000000000056 21.1658720000 28.4056520000 49.3862330000
101       5   4  0.02999999999999999889 16.7922020000 29.1567150000 46.8763390000
102       5   4  0.02999999999999999889 17.8659620000 27.7723400000 47.2544760000
103       5   4  0.02999999999999999889 19.9640070000 30.7825050000 46.4450020000
104       5   4  0.02999999999999999889 18.3183440000 31.0267200000 47.0952810000
105       5   4  0.14999999999999999445 17.7090870000 29.0679050000 43.6626210000
106       5   4  0.02999999999999999889 19.8666620000 30.6809820000 48.9231090000
107       5   4  0.02999999999999999889 18.7606340000 29.2940080000 48.8545350000
108       5   4  0.02999999999999999889 21.5240710000 29.2103570000 50.0487250000
109       5   4  0.02999999999999999889 20.3889910000 27.8309370000 49.9149910000
110       5   4  0.02999999999999999889 22.0003460000 27.7427310000 49.1432140000
111       6   1 -0.11999999999999999556 39.4861790000 28.8041190000 48.5606570000
112       6   1 -0.11999999999999999556 41.6857480000 28.5959190000 48.5656260000
113       6   1 -0.11999999999999999556 40.7231790000 29.2431950000 46.1237940000
114       6   1 -0.11999999999999999556 41.4713990000 27.1597670000 46.1484100000
115       6   2 -0.40000000000000002220 39.2986460000 25.9849360000 48.2325890000
116       6   2 -0.40000000000000002220 38.0236220000 24.7063400000 50.5052710000
117       6   3  0.23999999999999999112 40.5216450000 28.0094760000 48.1434010000
118       6   3  0.14000000000000001332 40.4265580000 26.6315680000 48.7802110000
119       6   3  0.14000000000000001332 39.2439930000 24.5775080000 48.4498770000
120       6   3  0.08999999999999999667 40.4816490000 27.9924900000 46.6052890000
121       6   3  0.14000000000000001332 39.1810790000 24.1586580000 49.9114440000
122       6   3  0.11000000000000000056 37.8868990000 24.3732300000 51.8755850000
123       6   4  0.02999999999999999889 41.3566490000 26.0892360000 48.5576320000
124       6   4  0.02999999999999999889 40.3410630000 26.7754890000 49.8653330000
125       6   4  0.02999999999999999889 38.3361780000 24.2511090000 47.9350290000
126       6   4  0.02999999999999999889 40.1146230000 24.0901280000 47.9789240000
127       6   4  0.14999999999999999445 39.5185480000 27.6388060000 46.2345380000
128       6   4  0.02999999999999999889 39.1604280000 23.0543710000 49.9472980000
129       6   4  0.02999999999999999889 40.0849850000 24.4818030000 50.4565430000
130       6   4  0.02999999999999999889 37.8060040000 23.2833740000 52.0184920000
131       6   4  0.02999999999999999889 38.7393370000 24.7455880000 52.4656070000
132       6   4  0.02999999999999999889 36.9693250000 24.8506340000 52.2291560000
133       7   1 -0.11999999999999999556 12.4773060000 30.4074570000  4.2847830000
134       7   1 -0.11999999999999999556 13.2531730000 28.6345290000  5.3507230000
135       7   1 -0.11999999999999999556 12.0790670000 27.9865310000  3.0034640000
136       7   1 -0.11999999999999999556 10.8500630000 27.3038950000  4.7136300000
137       7   2 -0.40000000000000002220 10.1222610000 30.2326080000  5.8702750000
138       7   2 -0.40000000000000002220  9.7926450000 32.5476520000  7.5900150000
139       7   3  0.23999999999999999112 12.1066800000 29.2912710000  4.9880000000
140       7   3  0.14000000000000001332 11.3627370000 29.6822230000  6.2556380000
141       7   3  0.14000000000000001332  9.1583120000 30.3404520000  6.9144140000
142       7   3  0.08999999999999999667 11.2887740000 28.4086780000  4.0289710000
143       7   3  0.14000000000000001332  9.5676800000 31.2400230000  8.0714620000
144       7   3  0.11000000000000000056 10.1881730000 33.4562390000  8.6026560000
145       7   4  0.02999999999999999889 11.2360170000 28.7780060000  6.8680650000
146       7   4  0.02999999999999999889 11.9903750000 30.4023010000  6.7969980000
147       7   4  0.02999999999999999889  8.2670050000 30.7483980000  6.4297650000
148       7   4  0.02999999999999999889  8.9202660000 29.3389450000  7.3114670000
149       7   4  0.14999999999999999445 10.4275720000 28.9453760000  3.6284740000
150       7   4  0.02999999999999999889  8.7517390000 31.2267910000  8.8165970000
151       7   4  0.02999999999999999889 10.4704070000 30.8530390000  8.5753760000
152       7   4  0.02999999999999999889  9.4124440000 33.5556600000  9.3792590000
153       7   4  0.02999999999999999889 11.1289800000 33.1395550000  9.0801710000
154       7   4  0.02999999999999999889 10.3387730000 34.4252330000  8.1197070000
155       8   1 -0.11999999999999999556 40.5951650000  5.2895140000 35.4774710000
156       8   1 -0.11999999999999999556 40.4744760000  5.3577070000 33.2724190000
157       8   1 -0.11999999999999999556 40.9170110000  2.8564710000 34.1976370000
158       8   1 -0.11999999999999999556 42.7162930000  3.6497190000 33.1805580000
159       8   2 -0.40000000000000002220 43.3324450000  6.0350370000 35.2723280000
160       8   2 -0.40000000000000002220 43.8477610000  8.6282630000 36.4703280000
161       8   3  0.23999999999999999112 41.3331790000  5.1913250000 34.3270610000
162       8   3  0.14000000000000001332 42.3772630000  6.2956480000 34.2673810000
163       8   3  0.14000000000000001332 44.5528150000  6.7606880000 35.1491130000
164       8   3  0.08999999999999999667 41.9222270000  3.7702290000 34.2926300000
165       8   3  0.14000000000000001332 44.4068970000  8.2735330000 35.2238020000
166       8   3  0.11000000000000000056 43.6671730000 10.0249750000 36.6252490000
167       8   4  0.02999999999999999889 42.8264910000  6.2849520000 33.2639800000
168       8   4  0.02999999999999999889 41.8565280000  7.2498480000 34.4218180000
169       8   4  0.02999999999999999889 45.1706990000  6.4099700000 35.9803470000
170       8   4  0.02999999999999999889 45.0516360000  6.4993840000 34.2003080000
171       8   4  0.14999999999999999445 42.5197740000  3.5637610000 35.1816860000
172       8   4  0.02999999999999999889 45.4109820000  8.7177830000 35.0988370000
173       8   4  0.02999999999999999889 43.7813860000  8.6535660000 34.3974160000
174       8   4  0.02999999999999999889 44.6269770000 10.5636020000 36.5668420000
175       8   4  0.02999999999999999889 42.9871280000 10.4287200000 35.8584670000
176       8   4  0.02999999999999999889 43.2274680000 10.1813330000 37.6137230000
177       9   1 -0.11999999999999999556  9.8389080000 12.1093080000 23.6360750000
178       9   1 -0.11999999999999999556  8.4538030000 13.7454770000 24.1707810000
179       9   1 -0.11999999999999999556  7.3028400000 11.3106650000 24.4053480000
180       9   1 -0.11999999999999999556  6.4519830000 12.4219760000 22.6900820000
181       9   2 -0.40000000000000002220  9.1463460000 12.5201800000 20.9080470000
182       9   2 -0.40000000000000002220 11.4143810000 13.4111800000 19.3307980000
183       9   3  0.23999999999999999112  8.7282780000 12.7965080000 23.2213360000
184       9   3  0.14000000000000001332  9.0018840000 13.5077270000 21.9050880000
185       9   3  0.14000000000000001332  9.0683210000 12.9984080000 19.5677990000
186       9   3  0.08999999999999999667  7.5724360000 11.7828300000 23.1568240000
187       9   3  0.14000000000000001332 10.1426270000 14.0059890000 19.1854140000
188       9   3  0.11000000000000000056 12.4810080000 14.2841280000 19.0026420000
189       9   4  0.02999999999999999889  8.1545950000 14.1769220000 21.6976940000
190       9   4  0.02999999999999999889  9.9130380000 14.1059340000 22.0372190000
191       9   4  0.02999999999999999889  9.1662010000 12.1038390000 18.9465920000
192       9   4  0.02999999999999999889  8.0782520000 13.4504320000 19.3867750000
193       9   4  0.14999999999999999445  7.8090740000 10.9486470000 22.4948170000
194       9   4  0.02999999999999999889  9.9647610000 14.3105350000 18.1381430000
195       9   4  0.02999999999999999889 10.0696490000 14.9180910000 19.8029470000
196       9   4  0.02999999999999999889 12.4248260000 14.6104790000 17.9514090000
197       9   4  0.02999999999999999889 12.4836570000 15.1750240000 19.6505040000
198       9   4  0.02999999999999999889 13.4080500000 13.7256020000 19.1559740000
199      10   1 -0.11999999999999999556 49.8368810000 25.5929600000 50.4550830000
200      10   1 -0.11999999999999999556 47.8688170000 25.8399510000 51.4283210000
201      10   1 -0.11999999999999999556 49.5272090000 24.2543580000 52.8578950000
202      10   1 -0.11999999999999999556 47.8813720000 23.0720110000 51.9666120000
203      10   2 -0.40000000000000002220 48.7064120000 23.5165200000 48.8736190000
204      10   2 -0.40000000000000002220 48.6787300000 24.1898970000 46.0502570000
205      10   3  0.23999999999999999112 48.6650940000 24.9498210000 50.7568050000
206      10   3  0.14000000000000001332 47.9427220000 24.5330250000 49.4849320000
207      10   3  0.14000000000000001332 48.0263950000 22.7727440000 47.8659350000
208      10   3  0.08999999999999999667 49.0241580000 23.7770090000 51.6859250000
209      10   3  0.14000000000000001332 47.5608860000 23.5925110000 46.6714250000
210      10   3  0.11000000000000000056 48.3370110000 24.9831960000 44.9271720000
211      10   4  0.02999999999999999889 46.9399450000 24.1789920000 49.7639180000
212      10   4  0.02999999999999999889 47.8495790000 25.4251370000 48.8517070000
213      10   4  0.02999999999999999889 48.7507770000 22.0227170000 47.5365980000
214      10   4  0.02999999999999999889 47.1544230000 22.2570600000 48.3030480000
215      10   4  0.14999999999999999445 49.7510580000 23.1083470000 51.2226540000
216      10   4  0.02999999999999999889 47.0376480000 22.9116240000 45.9758850000
217      10   4  0.02999999999999999889 46.8316950000 24.3625140000 46.9779830000
218      10   4  0.02999999999999999889 47.8486600000 24.3816110000 44.1433590000
219      10   4  0.02999999999999999889 47.6655120000 25.8095240000 45.2094810000
220      10   4  0.02999999999999999889 49.2694420000 25.3963360000 44.5337800000
221      11   1 -0.11999999999999999556 22.3686110000 48.6136220000 53.5451450000
222      11   1 -0.11999999999999999556 21.7725780000 50.2581200000 52.1953880000
223      11   1 -0.11999999999999999556 21.2165840000 47.8257870000 51.1548720000
224      11   1 -0.11999999999999999556 22.8786220000 48.7910800000 50.0562600000
225      11   2 -0.40000000000000002220 25.0034000000 48.8087860000 52.4913950000
226      11   2 -0.40000000000000002220 26.9254040000 49.6239780000 54.5080610000
227      11   3  0.23999999999999999112 22.6805150000 49.2470690000 52.3707470000
228      11   3  0.14000000000000001332 24.0683040000 49.8642910000 52.4499890000
229      11   3  0.14000000000000001332 26.3520080000 49.1852280000 52.2256800000
230      11   3  0.08999999999999999667 22.5199940000 48.2095720000 51.2457990000
231      11   3  0.14000000000000001332 26.9431810000 50.1821130000 53.2117350000
232      11   3  0.11000000000000000056 27.4524340000 50.4904770000 55.4974220000
233      11   4  0.02999999999999999889 24.2087180000 50.5001010000 51.5641200000
234      11   4  0.02999999999999999889 24.1002920000 50.4878580000 53.3531240000
235      11   4  0.02999999999999999889 26.9159270000 48.2492800000 52.2672610000
236      11   4  0.02999999999999999889 26.4321430000 49.6037270000 51.2079520000
237      11   4  0.14999999999999999445 23.1468480000 47.3334650000 51.4178520000
238      11   4  0.02999999999999999889 27.9766570000 50.4050990000 52.8902290000
239      11   4  0.02999999999999999889 26.3874240000 51.1357460000 53.1938530000
240      11   4  0.02999999999999999889 28.5074420000 50.7372290000 55.2953720000
241      11   4  0.02999999999999999889 26.8751820000 51.4266440000 55.5590510000
242      11   4  0.02999999999999999889 27.3838280000 49.9625420000 56.4521200000
243      12   1 -0.11999999999999999556  7.9370600000 44.1478260000 45.3053070000
244      12   1 -0.11999999999999999556  6.2496390000 45.2540210000 46.2055390000
245      12   1 -0.11999999999999999556  6.1249120000 45.2144070000 43.5053680000
246      12   1 -0.11999999999999999556  6.6155330000 47.2438710000 44.2413530000
247      12   2 -0.40000000000000002220  9.4974400000 46.5171320000 45.5107420000
248      12   2 -0.40000000000000002220 11.7441360000 46.1883150000 47.3190040000
249      12   3  0.23999999999999999112  7.4112280000 45.3991560000 45.4935200000
250      12   3  0.14000000000000001332  8.3630790000 46.2604510000 46.3092100000
251      12   3  0.14000000000000001332 10.3336770000 47.5754010000 45.9709890000
252      12   3  0.08999999999999999667  7.0932150000 45.9658830000 44.0987560000
253      12   3  0.14000000000000001332 10.9473090000 47.3530680000 47.3456140000
254      12   3  0.11000000000000000056 12.3516430000 45.8975800000 48.5655290000
255      12   4  0.02999999999999999889  7.8361160000 47.1865080000 46.5802500000
256      12   4  0.02999999999999999889  8.6109540000 45.7033050000 47.2222590000
257      12   4  0.02999999999999999889 11.1272260000 47.6492210000 45.2222810000
258      12   4  0.02999999999999999889  9.7683260000 48.5227800000 45.9845090000
259      12   4  0.14999999999999999445  7.9800150000 45.9853250000 43.4636810000
260      12   4  0.02999999999999999889 11.5537780000 48.2427300000 47.5943260000
261      12   4  0.02999999999999999889 10.1657410000 47.2690660000 48.1206610000
262      12   4  0.02999999999999999889 13.0247990000 46.7100350000 48.8841680000
263      12   4  0.02999999999999999889 11.5967530000 45.7344010000 49.3509850000
264      12   4  0.02999999999999999889 12.9331750000 44.9819370000 48.4303000000
265      13   1 -0.11999999999999999556 39.6862020000 34.2674840000 14.0551660000
266      13   1 -0.11999999999999999556 39.3945170000 32.7747920000 12.4525850000
267      13   1 -0.11999999999999999556 39.5891480000 31.6317430000 14.8946350000
268      13   1 -0.11999999999999999556 41.3852020000 31.1960960000 13.6758200000
269      13   2 -0.40000000000000002220 42.4700070000 34.2336300000 13.4721730000
270      13   2 -0.40000000000000002220 43.4082390000 36.7985850000 12.4891640000
271      13   3  0.23999999999999999112 40.3086980000 33.2776470000 13.3406930000
272      13   3  0.14000000000000001332 41.4765520000 33.8453740000 12.5488560000
273      13   3  0.14000000000000001332 43.7586310000 34.4683030000 12.9105400000
274      13   3  0.08999999999999999667 40.7069980000 32.1825910000 14.3456230000
275      13   3  0.14000000000000001332 43.8133370000 35.5897480000 11.8834390000
276      13   3  0.11000000000000000056 43.4204660000 37.9014580000 11.5998180000
277      13   4  0.02999999999999999889 41.8368230000 33.0626690000 11.8659860000
278      13   4  0.02999999999999999889 41.0961270000 34.6919460000 11.9622510000
279      13   4  0.02999999999999999889 44.3929370000 34.7213720000 13.7645570000
280      13   4  0.02999999999999999889 44.1404670000 33.5433750000 12.4457360000
281      13   4  0.14999999999999999445 41.3443350000 32.5793570000 15.1371340000
282      13   4  0.02999999999999999889 44.8521700000 35.6604110000 11.5133120000
283      13   4  0.02999999999999999889 43.1756260000 35.3615210000 11.0117510000
284      13   4  0.02999999999999999889 44.4330230000 38.0910140000 11.2079640000
285      13   4  0.02999999999999999889 42.7367670000 37.7398180000 10.7513750000
286      13   4  0.02999999999999999889 43.0869440000 38.7730270000 12.1690290000
287      14   1 -0.11999999999999999556 13.6425250000  3.5834130000 38.0402640000
288      14   1 -0.11999999999999999556 13.9949870000  5.1988070000 36.5747440000
289      14   1 -0.11999999999999999556 11.9383810000  3.5967940000 35.8592160000
290      14   1 -0.11999999999999999556 13.6762380000  3.2919070000 34.5220530000
291      14   2 -0.40000000000000002220 15.6778510000  2.0740140000 36.7480740000
292      14   2 -0.40000000000000002220 17.9498160000  1.5940390000 38.4897320000
293      14   3  0.23999999999999999112 14.1127950000  3.8493920000 36.7809580000
294      14   3  0.14000000000000001332 15.5840400000  3.4795810000 36.6719680000
295      14   3  0.14000000000000001332 16.9251040000  1.5277890000 36.3272980000
296      14   3  0.08999999999999999667 13.2031260000  3.0961020000 35.7946850000
297      14   3  0.14000000000000001332 18.1278130000  1.9785080000 37.1433320000
298      14   3  0.11000000000000000056 19.0234500000  1.9820580000 39.3288790000
299      14   4  0.02999999999999999889 15.9608260000  3.8629410000 35.7129060000
300      14   4  0.02999999999999999889 16.1111470000  3.9797090000 37.4950980000
301      14   4  0.02999999999999999889 16.8016220000  0.4454650000 36.4224880000
302      14   4  0.02999999999999999889 17.1045860000  1.7732800000 35.2667070000
303      14   4  0.14999999999999999445 13.1829580000  2.0262440000 36.0070760000
304      14   4  0.02999999999999999889 19.0277620000  1.5045510000 36.7113370000
305      14   4  0.02999999999999999889 18.2716540000  3.0704700000 37.0689650000
306      14   4  0.02999999999999999889 19.9708920000  1.5174380000 39.0107050000
307      14   4  0.02999999999999999889 19.1506350000  3.0762170000 39.3370150000
308      14   4  0.02999999999999999889 18.7778020000  1.6413740000 40.3380670000
309      15   1 -0.11999999999999999556 33.4867940000 41.0397710000 21.6678820000
310      15   1 -0.11999999999999999556 33.2596460000 39.2606010000 22.9580110000
311      15   1 -0.11999999999999999556 35.5845070000 40.5640180000 23.4098690000
312      15   1 -0.11999999999999999556 35.9512530000 38.6232150000 22.4099230000
313      15   2 -0.40000000000000002220 34.4793980000 39.3318780000 19.6213170000
314      15   2 -0.40000000000000002220 32.7392390000 39.2900010000 17.2984590000
315      15   3  0.23999999999999999112 33.9461180000 39.7672830000 21.8859320000
316      15   3  0.14000000000000001332 33.6624290000 38.8840660000 20.6806730000
317      15   3  0.14000000000000001332 34.6024110000 38.4257800000 18.5281980000
318      15   3  0.08999999999999999667 35.4392500000 39.8843060000 22.2388320000
319      15   3  0.14000000000000001332 33.2967490000 38.1015170000 17.8170940000
320      15   3  0.11000000000000000056 31.5108550000 39.0834740000 16.6233020000
321      15   4  0.02999999999999999889 33.8884150000 37.8449780000 20.9598890000
322      15   4  0.02999999999999999889 32.5924700000 38.9737930000 20.4512200000
323      15   4  0.02999999999999999889 35.2865090000 38.9195830000 17.8325670000
324      15   4  0.02999999999999999889 35.0626650000 37.4833730000 18.8707890000
325      15   4  0.14999999999999999445 35.9974150000 40.3920410000 21.4509430000