Generated by pymatgen.io.lammps.data.LammpsData

16304  atoms
15596  bonds
28107  angles
29334  dihedrals

   17  atom types
   18  bond types
   32  angle types
   32  dihedral types

-0.2500000000 60.2500000000  xlo xhi
-0.2500000000 60.2500000000  ylo yhi
-0.2500000000 60.2500000000  zlo zhi

Masses

1   18.998403
2   15.999400
3   12.010700
4   12.010700
5    1.007940
6   14.010000
7   32.060000
8   16.000000
9   12.010000
10  19.000000
11  16.000000
12  12.010000
13  12.010000
14   1.008000
15  32.060000
16  32.060000
17   6.941000

Pair Coeffs

1     0.0530  2.950000
2     0.1400  2.900000
3     0.0660  3.500000
4     0.0660  3.500000
5     0.0300  2.500000
6       0.17  3.249999
7       0.25  3.549340
8       0.21  2.959566
9      0.066  3.499450
10     0.053  2.948875
11      0.14  2.900000
12     0.066  3.500000
13     0.066  3.500000
14      0.03  2.500000
15  0.344001  3.590322
16  0.344001  3.590322
17  0.165057  1.506000

Bond Coeffs

1   455.00  1.355
2   367.00  1.332
3   320.00  1.410
4   470.00  1.351
5   268.00  1.529
6   340.00  1.090
7   268.00  1.529
8   441.80  1.323
9   235.40  1.818
10  637.10  1.442
11  372.00  1.570
12  320.00  1.410
13  320.00  1.380
14  268.00  1.529
15  340.00  1.090
16  340.00  1.090
17  157.87  2.133
18  154.36  2.117


Angle Coeffs

1    90.00  114.194
2    50.00  109.500
3    35.00  109.500
4    37.50  110.700
5    33.00  107.800
6    58.35  112.700
7   110.00  107.787
8   110.00  110.361
9    50.00  109.500
10   50.00  109.500
11   50.00  109.500
12   77.00  109.100
13   50.00  109.500
14   40.00  107.000
15   37.50  110.700
16   93.30  107.100
17   82.90  111.800
18  104.00  102.600
19  115.80  118.500
20   94.30  113.600
21   97.50  100.200
22   80.20  125.600
23   60.00  109.500
24   50.00  109.500
25   35.00  109.500
26   37.50  110.700
27   33.00  107.800
28   92.60  111.550
29   35.00  109.500
30   33.00  109.500
31   73.56  112.740
32   73.56  112.740


Dihedral Coeffs

1 3 0.062500000 1 0.000000000 -0.011000000 2 180.000000000 0.280500000 3 0.000000000
2 3 0.062500000 1 0.000000000 -0.011000000 2 180.000000000 0.280500000 3 0.000000000
3 1 0.370500000 3 0.000000000
4 1 0.370500000 3 0.000000000
5 3 1.726500000 1 0.000000000 -1.387000000 2 180.000000000 0.335500000 3 0.000000000
6 3 0.062500000 1 0.000000000 -0.011000000 2 180.000000000 0.280500000 3 0.000000000
7 3 0.627500000 1 0.000000000 -0.309500000 2 180.000000000 0.273000000 3 0.000000000
8 1 0.234000000 3 0.000000000
9 1 0.150000000 3 0.000000000
10 1 0.150000000 3 0.000000000
11 3 0.301000000 1 0.000000000 -1.359500000 2 180.000000000 0.367000000 3 0.000000000
12 3 0.301000000 1 0.000000000 -1.359500000 2 180.000000000 0.367000000 3 0.000000000
13 1 0.221000000 3 0.000000000
14 1 0.221000000 3 0.000000000
15 2 0.518500000 1 0.000000000 -0.728500000 2 180.000000000
16 2 0.518500000 1 0.000000000 -0.728500000 2 180.000000000
17 1 0.234000000 3 0.000000000
18 1 0.173400000 3 0.000000000
19 1 0.158000000 3 0.000000000
20 1 -0.001800000 3 0.000000000
21 3 3.916460000 1 0.000000000 -1.245000000 2 180.000000000 -0.381800000 3 0.000000000
22 3 0.062500000 1 0.000000000 -0.011000000 2 180.000000000 0.280500000 3 0.000000000
23 3 0.062500000 1 0.000000000 -0.011000000 2 180.000000000 0.280500000 3 0.000000000
24 1 0.370500000 3 0.000000000
25 1 0.370500000 3 0.000000000
26 3 -0.533500000 1 0.000000000 -0.783500000 2 180.000000000 0.337500000 3 0.000000000
27 1 0.370500000 3 0.000000000
28 3 1.119000000 1 0.000000000 -1.163500000 2 180.000000000 -0.341500000 3 0.000000000
29 1 0.234000000 3 0.000000000
30 1 0.150000000 3 0.000000000
31 4 5.431700000 1 0.000000000 -3.590000000 2 180.000000000 1.055600000 3 0.000000000 0.058320000 4 180.000000000
32 4 5.431700000 1 0.000000000 -3.590000000 2 180.000000000 1.055600000 3 0.000000000 0.058320000 4 180.000000000


Atoms

1         1   1 -0.23260000000000000120 31.8894460000 26.8443290000 19.5089280000
2         1   1 -0.23260000000000000120 33.0959660000 27.0489440000 21.3246370000
3         1   1 -0.11999999999999999556 31.2091710000 24.2409800000 20.2570180000
4         1   1 -0.11999999999999999556 33.3840180000 24.6185100000 20.1532020000
5         1   2 -0.36299999999999998934 30.8773330000 26.6841810000 21.5222220000
6         1   3  0.12149999999999999689 30.4329730000 28.0728040000 21.5558250000
7         1   3 -0.11999999999999999556 29.2846420000 28.1583150000 22.5471770000
8         1   4  0.64670000000000005258 31.9827180000 26.4148830000 20.8073990000
9         1   3 -0.17999999999999999334 29.6966070000 27.8332000000 23.9864670000
10        1   3  0.08999999999999999667 32.2472910000 24.8974650000 20.8490140000
11        1   5  0.02999999999999999889 31.2767500000 28.7010960000 21.8628700000
12        1   5  0.02999999999999999889 30.1202530000 28.3553590000 20.5451500000
13        1   5  0.05999999999999999778 28.8822220000 29.1797410000 22.4887940000
14        1   5  0.05999999999999999778 28.4842180000 27.4841380000 22.2170440000
15        1   5  0.14999999999999999445 32.3568410000 24.5454800000 21.8782160000
16        1   5  0.05999999999999999778 30.4828400000 28.5155090000 24.3350790000
17        1   5  0.05999999999999999778 28.8433600000 27.9266450000 24.6676380000
18        1   5  0.05999999999999999778 30.0797550000 26.8106360000 24.0622080000
19        2   1 -0.23260000000000000120 45.9720030000 10.7672450000 27.4102790000
20        2   1 -0.23260000000000000120 47.1044910000 12.4054420000 28.3202990000
21        2   1 -0.11999999999999999556 48.3312900000  9.7447210000 26.3203010000
22        2   1 -0.11999999999999999556 47.9247850000 11.8520490000 25.7938160000
23        2   2 -0.36299999999999998934 47.5714250000 10.2831480000 28.9304340000
24        2   3  0.12149999999999999689 46.6521810000 10.1759350000 30.0575340000
25        2   3 -0.11999999999999999556 47.3475480000  9.3605530000 31.1347400000
26        2   4  0.64670000000000005258 47.2042290000 11.0872830000 27.9185530000
27        2   3 -0.17999999999999999334 48.5992280000 10.0392620000 31.7000910000
28        2   3  0.08999999999999999667 48.2725930000 11.0156960000 26.8105080000
29        2   5  0.02999999999999999889 46.4132150000 11.1859620000 30.4092840000
30        2   5  0.02999999999999999889 45.7365770000  9.6890970000 29.7057480000
31        2   5  0.05999999999999999778 46.6137540000  9.1895760000 31.9353490000
32        2   5  0.05999999999999999778 47.6000610000  8.3755880000 30.7221110000
33        2   5  0.14999999999999999445 49.2561240000 11.3004230000 27.1935820000
34        2   5  0.05999999999999999778 48.3549300000 11.0172590000 32.1349230000
35        2   5  0.05999999999999999778 49.0551860000  9.4260270000 32.4854580000
36        2   5  0.05999999999999999778 49.3469890000 10.1961730000 30.9162480000
37        3   1 -0.23260000000000000120 29.9161830000 45.4604040000 56.6796110000
38        3   1 -0.23260000000000000120 32.0241990000 45.8162840000 56.2063500000
39        3   1 -0.11999999999999999556 29.2840190000 45.6062410000 53.9631910000
40        3   1 -0.11999999999999999556 30.3527210000 47.3756050000 54.7445290000
41        3   2 -0.36299999999999998934 31.0154050000 43.9728900000 55.3825420000
42        3   3  0.12149999999999999689 31.3245150000 43.0534240000 56.4715290000
43        3   3 -0.11999999999999999556 31.6191200000 41.6978450000 55.8515520000
44        3   4  0.64670000000000005258 30.8596990000 45.2682070000 55.7039130000
45        3   3 -0.17999999999999999334 32.8628820000 41.6941400000 54.9571180000
46        3   3  0.08999999999999999667 30.4817500000 46.0559550000 54.4347020000
47        3   5  0.02999999999999999889 32.1904640000 43.4414950000 57.0197270000
48        3   5  0.02999999999999999889 30.4593090000 43.0152970000 57.1416470000
49        3   5  0.05999999999999999778 31.7437840000 40.9841310000 56.6784320000
50        3   5  0.05999999999999999778 30.7386020000 41.3722650000 55.2833380000
51        3   5  0.14999999999999999445 31.2422090000 45.9387410000 53.6580990000
52        3   5  0.05999999999999999778 33.7545810000 41.9982080000 55.5207250000
53        3   5  0.05999999999999999778 33.0474530000 40.6941720000 54.5487630000
54        3   5  0.05999999999999999778 32.7428390000 42.3858360000 54.1172820000
55        4   1 -0.23260000000000000120 40.9161580000 21.7823160000 50.5251100000
56        4   1 -0.23260000000000000120 42.7692040000 21.1188730000 51.4844930000
57        4   1 -0.11999999999999999556 40.8702350000 19.4425660000 49.0008710000
58        4   1 -0.11999999999999999556 42.7379560000 20.6096170000 48.8195500000
59        4   2 -0.36299999999999998934 40.9019830000 19.8764010000 51.7378170000
60        4   3  0.12149999999999999689 40.3922560000 20.4992460000 52.9540000000
61        4   3 -0.11999999999999999556 39.7883260000 19.3981710000 53.8093700000
62        4   4  0.64670000000000005258 41.6047240000 20.6581230000 50.9008970000
63        4   3 -0.17999999999999999334 40.8141220000 18.3651330000 54.2863870000
64        4   3  0.08999999999999999667 41.9979860000 19.8343560000 49.6595100000
65        4   5  0.02999999999999999889 41.2243660000 20.9954790000 53.4661840000
66        4   5  0.02999999999999999889 39.6460110000 21.2474720000 52.6669960000
67        4   5  0.05999999999999999778 39.3095100000 19.8840950000 54.6715040000
68        4   5  0.05999999999999999778 38.9891520000 18.9081770000 53.2389250000
69        4   5  0.14999999999999999445 42.5767110000 18.9506660000 49.9411490000
70        4   5  0.05999999999999999778 41.6079030000 18.8413700000 54.8765970000
71        4   5  0.05999999999999999778 40.3384970000 17.6034560000 54.9143890000
72        4   5  0.05999999999999999778 41.2833520000 17.8586990000 53.4369600000
73        5   1 -0.23260000000000000120 53.4253890000 57.7480410000 29.5103710000
74        5   1 -0.23260000000000000120 55.4697010000 57.2509090000 28.9037370000
75        5   1 -0.11999999999999999556 52.4926480000 56.9722750000 26.9948150000
76        5   1 -0.11999999999999999556 54.0798360000 58.5089350000 26.9421330000
77        5   2 -0.36299999999999998934 53.9148220000 55.6154330000 28.9483990000
78        5   3  0.12149999999999999689 54.1181430000 55.1624220000 30.3196390000
79        5   3 -0.11999999999999999556 53.9638190000 53.6508340000 30.3261570000
80        5   4  0.64670000000000005258 54.1460320000 56.9145200000 28.6948550000
81        5   3 -0.17999999999999999334 55.0315040000 52.9256910000 29.5008170000
82        5   3  0.08999999999999999667 53.8183500000 57.2011410000 27.2167610000
83        5   5  0.02999999999999999889 55.1209210000 55.4655230000 30.6414360000
84        5   5  0.02999999999999999889 53.3712990000 55.6506890000 30.9543940000
85        5   5  0.05999999999999999778 54.0089360000 53.3255470000 31.3753540000
86        5   5  0.05999999999999999778 52.9606580000 53.3982520000 29.9600260000
87        5   5  0.14999999999999999445 54.4102970000 56.5659910000 26.5524320000
88        5   5  0.05999999999999999778 56.0391420000 53.1544750000 29.8717090000
89        5   5  0.05999999999999999778 54.8929550000 51.8398280000 29.5504500000
90        5   5  0.05999999999999999778 54.9833340000 53.2253180000 28.4491140000
91        6   1 -0.23260000000000000120  0.7973410000 35.0298140000 15.3611490000
92        6   1 -0.23260000000000000120  2.5968140000 33.7954280000 15.1807570000
93        6   1 -0.11999999999999999556  2.1481270000 36.7397580000 17.1079490000
94        6   1 -0.11999999999999999556  2.1515740000 34.6186050000 17.7275950000
95        6   2 -0.36299999999999998934  2.6757520000 35.9476000000 14.5052210000
96        6   3  0.12149999999999999689  2.2943270000 35.7499540000 13.1115540000
97        6   3 -0.11999999999999999556  3.1142360000 36.7175180000 12.2746990000
98        6   4  0.64670000000000005258  2.1661970000 35.0890370000 15.4044390000
99        6   3 -0.17999999999999999334  4.6200860000 36.4398540000 12.3225370000
100       6   3  0.08999999999999999667  2.6373710000 35.5018940000 16.8122150000
101       6   5  0.02999999999999999889  2.4996500000 34.7086310000 12.8386490000
102       6   5  0.02999999999999999889  1.2201810000 35.9427280000 13.0213190000
103       6   5  0.05999999999999999778  2.7468980000 36.6429530000 11.2411790000
104       6   5  0.05999999999999999778  2.9031340000 37.7402080000 12.6119270000
105       6   5  0.14999999999999999445  3.7288110000 35.5216900000 16.8715230000
106       6   5  0.05999999999999999778  4.8453970000 35.4258790000 11.9671120000
107       6   5  0.05999999999999999778  5.1681390000 37.1476860000 11.6905800000
108       6   5  0.05999999999999999778  5.0025650000 36.5317410000 13.3440280000
109       7   1 -0.23260000000000000120  5.8673390000 30.2302000000 39.0968580000
110       7   1 -0.23260000000000000120  5.7974730000 28.2596870000 40.0489870000
111       7   1 -0.11999999999999999556  3.4191530000 29.7147980000 37.8556530000
112       7   1 -0.11999999999999999556  4.9750820000 28.1952540000 37.4640760000
113       7   2 -0.36299999999999998934  4.1778720000 29.7592890000 40.5206970000
114       7   3  0.12149999999999999689  4.8011620000 30.3928180000 41.6769880000
115       7   3 -0.11999999999999999556  3.6988240000 30.6962230000 42.6777640000
116       7   4  0.64670000000000005258  4.9992670000 29.2810820000 39.5709610000
117       7   3 -0.17999999999999999334  3.0129720000 29.4416630000 43.2279060000
118       7   3  0.08999999999999999667  4.1512030000 28.7110950000 38.4176210000
119       7   5  0.02999999999999999889  5.5438130000 29.7030730000 42.0937710000
120       7   5  0.02999999999999999889  5.3042560000 31.3039740000 41.3367150000
121       7   5  0.05999999999999999778  4.1547570000 31.2701170000 43.4971740000
122       7   5  0.05999999999999999778  2.9631010000 31.3562730000 42.2010790000
123       7   5  0.14999999999999999445  3.4762950000 27.9288810000 38.7750990000
124       7   5  0.05999999999999999778  3.7365530000 28.7832140000 43.7260150000
125       7   5  0.05999999999999999778  2.2407470000 29.7071810000 43.9586080000
126       7   5  0.05999999999999999778  2.5365190000 28.8718470000 42.4238670000
127       8   1 -0.23260000000000000120 18.8583540000 12.4245030000 18.8534260000
128       8   1 -0.23260000000000000120 19.5309480000 10.3451380000 18.7184670000
129       8   1 -0.11999999999999999556 21.3188950000 13.1462270000 19.9600850000
130       8   1 -0.11999999999999999556 20.2732980000 11.5292340000 21.0442090000
131       8   2 -0.36299999999999998934 20.6451700000 11.9312850000 17.5621480000
132       8   3  0.12149999999999999689 19.8902780000 11.8598090000 16.3164000000
133       8   3 -0.11999999999999999556 20.8771760000 12.0452800000 15.1760540000
134       8   4  0.64670000000000005258 19.9794970000 11.6517210000 18.6953260000
135       8   3 -0.17999999999999999334 21.9165100000 10.9237880000 15.0811190000
136       8   3  0.08999999999999999667 20.9303000000 11.8409990000 19.8930060000
137       8   5  0.02999999999999999889 19.3951830000 10.8834870000 16.2647770000
138       8   5  0.02999999999999999889 19.1321060000 12.6497760000 16.3312600000
139       8   5  0.05999999999999999778 20.2916580000 12.1001430000 14.2471720000
140       8   5  0.05999999999999999778 21.3730040000 13.0170060000 15.2947320000
141       8   5  0.14999999999999999445 21.8148040000 11.2056930000 19.7971400000
142       8   5  0.05999999999999999778 21.4323170000  9.9485170000 14.9409690000
143       8   5  0.05999999999999999778 22.5929020000 11.0885860000 14.2348970000
144       8   5  0.05999999999999999778 22.5207850000 10.8722740000 15.9923680000
145       9   1 -0.23260000000000000120 47.1628510000 47.5095950000 19.6949840000
146       9   1 -0.23260000000000000120 49.2940430000 47.5773150000 19.1972020000
147       9   1 -0.11999999999999999556 47.7244050000 48.5394220000 22.2295360000
148       9   1 -0.11999999999999999556 48.8441650000 46.7021230000 21.7258160000
149       9   2 -0.36299999999999998934 48.2228590000 49.5044710000 19.6799650000
150       9   3  0.12149999999999999689 47.8063460000 49.8635040000 18.3292350000
151       9   3 -0.11999999999999999556 47.9312640000 51.3724190000 18.2014470000
152       9   4  0.64670000000000005258 48.3207640000 48.1939260000 19.9597040000
153       9   3 -0.17999999999999999334 49.3723700000 51.8772620000 18.3252150000
154       9   3  0.08999999999999999667 48.7115630000 48.0270050000 21.4408200000
155       9   5  0.02999999999999999889 48.4556330000 49.3444650000 17.6150830000
156       9   5  0.02999999999999999889 46.7735620000 49.5272140000 18.1901000000
157       9   5  0.05999999999999999778 47.5143570000 51.6498280000 17.2227270000
158       9   5  0.05999999999999999778 47.2945690000 51.8434970000 18.9609770000
159       9   5  0.14999999999999999445 49.6514630000 48.5406040000 21.6598050000
160       9   5  0.05999999999999999778 50.0146730000 51.4283310000 17.5563550000
161       9   5  0.05999999999999999778 49.4164890000 52.9657890000 18.2072380000
162       9   5  0.05999999999999999778 49.7923030000 51.6256350000 19.3042540000
163      10   1 -0.23260000000000000120  7.2555870000 13.1771970000 38.8726420000
164      10   1 -0.23260000000000000120  7.8519200000 11.0950050000 39.1939150000
165      10   1 -0.11999999999999999556  9.5677650000 14.0388970000 40.1807490000
166      10   1 -0.11999999999999999556  8.3149440000 12.6559570000 41.3644630000
167      10   2 -0.36299999999999998934  9.1813240000 12.4337040000 37.9549660000
168      10   3  0.12149999999999999689  8.6035790000 12.1577850000 36.6446460000
169      10   3 -0.11999999999999999556  9.7456080000 12.1228250000 35.6429950000
170      10   4  0.64670000000000005258  8.3541600000 12.3691700000 39.0118500000
171      10   3 -0.17999999999999999334 10.7397650000 10.9840860000 35.8917820000
172      10   3  0.08999999999999999667  9.1373810000 12.7491720000 40.2832480000
173      10   5  0.02999999999999999889  8.0795720000 11.1963820000 36.6905690000
174      10   5  0.02999999999999999889  7.8846940000 12.9512240000 36.4149660000
175      10   5  0.05999999999999999778  9.2969870000 12.0239470000 34.6441850000
176      10   5  0.05999999999999999778 10.2608750000 13.0914680000 35.6633240000
177      10   5  0.14999999999999999445  9.9990040000 12.0915320000 40.4256000000
178      10   5  0.05999999999999999778 10.2388310000 10.0079800000 35.8528020000
179      10   5  0.05999999999999999778 11.5330130000 10.9858590000 35.1357980000
180      10   5  0.05999999999999999778 11.2095280000 11.0828360000 36.8755240000
181      11   1 -0.23260000000000000120 44.0072700000 10.9415710000 55.7229290000
182      11   1 -0.23260000000000000120 45.1153350000  9.3447000000 54.7146890000
183      11   1 -0.11999999999999999556 46.3607750000 12.4278430000 55.9506400000
184      11   1 -0.11999999999999999556 46.4817630000 10.3956100000 56.8100900000
185      11   2 -0.36299999999999998934 45.0263150000 11.3863270000 53.7564310000
186      11   3  0.12149999999999999689 43.8317360000 11.1905370000 52.9431000000
187      11   3 -0.11999999999999999556 44.0576490000 11.9097270000 51.6238250000
188      11   4  0.64670000000000005258 45.0915250000 10.7113180000 54.9163790000
189      11   3 -0.17999999999999999334 45.2066690000 11.3220820000 50.7983570000
190      11   3  0.08999999999999999667 46.3913350000 11.0988050000 55.6475690000
191      11   5  0.02999999999999999889 43.6841490000 10.1148510000 52.7944230000
192      11   5  0.02999999999999999889 42.9761430000 11.6011750000 53.4893870000
193      11   5  0.05999999999999999778 43.1162210000 11.8527000000 51.0589160000
194      11   5  0.05999999999999999778 44.2388920000 12.9723440000 51.8291980000
195      11   5  0.14999999999999999445 47.2679380000 10.8899620000 55.0286180000
196      11   5  0.05999999999999999778 45.0259860000 10.2638520000 50.5687050000
197      11   5  0.05999999999999999778 45.3198310000 11.8580120000 49.8492890000
198      11   5  0.05999999999999999778 46.1543540000 11.3920640000 51.3416550000
199      12   1 -0.23260000000000000120 18.5631460000 21.5695820000 43.9907880000
200      12   1 -0.23260000000000000120 16.4516680000 21.0210970000 43.8032230000
201      12   1 -0.11999999999999999556 17.8464760000 23.7994630000 45.5119240000
202      12   1 -0.11999999999999999556 16.8601840000 23.6903140000 43.5374420000
203      12   2 -0.36299999999999998934 17.3848080000 21.0888010000 45.8572660000
204      12   3  0.12149999999999999689 17.8283550000 19.7018640000 45.9380830000
205      12   3 -0.11999999999999999556 17.6165180000 19.2400130000 47.3700660000
206      12   4  0.64670000000000005258 17.3566760000 21.6497760000 44.6366580000
207      12   3 -0.17999999999999999334 16.1437310000 19.2161760000 47.7911390000
208      12   3  0.08999999999999999667 16.9222440000 23.1218210000 44.7731940000
209      12   5  0.02999999999999999889 17.2387790000 19.1060220000 45.2321370000
210      12   5  0.02999999999999999889 18.8841560000 19.6641250000 45.6500640000
211      12   5  0.05999999999999999778 18.0516700000 18.2338370000 47.4532060000
212      12   5  0.05999999999999999778 18.1947790000 19.8904380000 48.0384550000
213      12   5  0.14999999999999999445 15.9453310000 23.2002030000 45.2575980000
214      12   5  0.05999999999999999778 15.5588730000 18.5516190000 47.1418760000
215      12   5  0.05999999999999999778 16.0377460000 18.8588950000 48.8216120000
216      12   5  0.05999999999999999778 15.7039790000 20.2168810000 47.7329580000
217      13   1 -0.23260000000000000120 12.8949530000 45.9340810000 25.5309960000
218      13   1 -0.23260000000000000120 10.7701800000 46.4594530000 25.5916300000
219      13   1 -0.11999999999999999556 13.5283310000 48.5784580000 24.8938590000
220      13   1 -0.11999999999999999556 12.0736100000 47.6360900000 23.5230950000
221      13   2 -0.36299999999999998934 12.1840420000 47.4559190000 27.0416210000
222      13   3  0.12149999999999999689 12.0701650000 46.5049120000 28.1413830000
223      13   3 -0.11999999999999999556 12.1006120000 47.3010360000 29.4352210000
224      13   4  0.64670000000000005258 12.0374550000 46.9698270000 25.7975970000
225      13   3 -0.17999999999999999334 10.9066210000 48.2472130000 29.5967940000
226      13   3  0.08999999999999999667 12.2514570000 48.1124800000 24.7862430000
227      13   5  0.02999999999999999889 11.1289410000 45.9547590000 28.0299540000
228      13   5  0.02999999999999999889 12.9090420000 45.8042550000 28.0746070000
229      13   5  0.05999999999999999778 12.1248430000 46.5756130000 30.2609550000
230      13   5  0.05999999999999999778 13.0423000000 47.8626080000 29.4804130000
231      13   5  0.14999999999999999445 11.5516390000 48.9329060000 24.9659790000
232      13   5  0.05999999999999999778  9.9589820000 47.6933980000 29.5742600000
233      13   5  0.05999999999999999778 10.9600690000 48.7843790000 30.5503930000
234      13   5  0.05999999999999999778 10.8830990000 48.9884180000 28.7916610000
235      14   1 -0.23260000000000000120 15.0039280000 18.4708270000  2.5188020000
236      14   1 -0.23260000000000000120 12.8156100000 18.5398790000  2.4896690000
237      14   1 -0.11999999999999999556 15.0880270000 20.3266370000  0.4334390000
238      14   1 -0.11999999999999999556 13.8886490000 18.5225370000 -0.0024240000
239      14   2 -0.36299999999999998934 13.9621900000 20.4253380000  2.9638230000
240      14   3  0.12149999999999999689 14.0255780000 20.2799730000  4.4135500000
241      14   3 -0.11999999999999999556 13.8638460000 21.6653170000  5.0163940000
242      14   4  0.64670000000000005258 13.9450210000 19.2948120000  2.2378850000
243      14   3 -0.17999999999999999334 12.4965520000 22.2964860000  4.7351410000
244      14   3  0.08999999999999999667 13.9380120000 19.6620010000  0.7414180000
245      14   5  0.02999999999999999889 13.2213790000 19.6068080000  4.7315120000
246      14   5  0.02999999999999999889 14.9927030000 19.8348330000  4.6697020000
247      14   5  0.05999999999999999778 14.0211240000 21.5669690000  6.1000240000
248      14   5  0.05999999999999999778 14.6674820000 22.3095210000  4.6377780000
249      14   5  0.14999999999999999445 13.0797500000 20.2928550000  0.4953290000
250      14   5  0.05999999999999999778 11.6850230000 21.6704380000  5.1284900000
251      14   5  0.05999999999999999778 12.4179630000 23.2836000000  5.2043810000
252      14   5  0.05999999999999999778 12.3362740000 22.4194090000  3.6593260000
253      15   1 -0.23260000000000000120 30.2049000000 29.6190000000 42.6478810000
254      15   1 -0.23260000000000000120 29.3658830000 31.3686430000 41.6334080000
255      15   1 -0.11999999999999999556 27.6974410000 28.3901960000 42.5975760000
256      15   1 -0.11999999999999999556 27.7137030000 30.3851580000 43.5479050000
257      15   2 -0.36299999999999998934 29.3258650000 29.3720360000 40.5815610000
258      15   3  0.12149999999999999689 30.6027010000 29.4706120000 39.8838290000
259      15   3 -0.11999999999999999556 30.4221290000 28.8370460000 38.5146160000
260      15   4  0.64670000000000005258 29.2278060000 30.0002690000 41.7652320000
261      15   3 -0.17999999999999999334 29.4201250000 29.5811190000 37.6261830000
262      15   3  0.08999999999999999667 27.8340080000 29.7262890000 42.3623520000
263      15   5  0.02999999999999999889 30.8752080000 30.5290960000 39.8042150000
264      15   5  0.02999999999999999889 31.3578040000 28.9462110000 40.4787390000
265      15   5  0.05999999999999999778 31.4113250000 28.8149000000 38.0353870000
266      15   5  0.05999999999999999778 30.1125620000 27.7928080000 38.6484660000
267      15   5  0.14999999999999999445 27.0434440000 30.0556630000 41.6828890000
268      15   5  0.05999999999999999778 29.7308610000 30.6220930000 37.4679000000
269      15   5  0.05999999999999999778 29.3371570000 29.1015260000 36.6444170000
270      15   5  0.05999999999999999778 28.4253150000 29.5920000000 38.0827060000
271      16   1 -0.23260000000000000120 41.3090710000  4.1476940000  7.7199450000
272      16   1 -0.23260000000000000120 43.2530910000  5.1437770000  7.5684270000
273      16   1 -0.11999999999999999556 42.1148740000  2.2876840000  5.7987770000
274      16   1 -0.11999999999999999556 42.2777000000  4.3938480000  5.1500680000
275      16   2 -0.36299999999999998934 43.1764730000  2.9961950000  8.2586780000
276      16   3  0.12149999999999999689 43.0677530000  3.2348690000  9.6932760000
277      16   3 -0.11999999999999999556 43.8913230000  2.1679770000 10.3948690000
278      16   4  0.64670000000000005258 42.6318030000  3.9159530000  7.4445830000
279      16   3 -0.17999999999999999334 45.3893570000  2.2531010000 10.0856470000
280      16   3  0.08999999999999999667 42.7988310000  3.4525040000  5.9845810000
281      16   5  0.02999999999999999889 43.4457260000  4.2407380000  9.9085680000
282      16   5  0.02999999999999999889 42.0094760000  3.1791660000  9.9690330000
283      16   5  0.05999999999999999778 43.7191240000  2.2842320000 11.4744490000
284      16   5  0.05999999999999999778 43.4989970000  1.1815820000 10.1168660000
285      16   5  0.14999999999999999445 43.8526760000  3.2950330000  5.7401140000
286      16   5  0.05999999999999999778 45.7975990000  3.2289810000 10.3793060000
287      16   5  0.05999999999999999778 45.9446590000  1.4790740000 10.6271990000
288      16   5  0.05999999999999999778 45.5762450000  2.1176990000  9.0156400000
289      17   1 -0.23260000000000000120 45.2163020000 34.9149420000 50.9203230000
290      17   1 -0.23260000000000000120 46.0969550000 33.3306830000 49.6919390000
291      17   1 -0.11999999999999999556 42.7201750000 33.6780570000 50.7220640000
292      17   1 -0.11999999999999999556 43.6695900000 34.1272530000 48.7778170000
293      17   2 -0.36299999999999998934 45.1651150000 32.7859990000 51.6742150000
294      17   3  0.12149999999999999689 46.3512930000 32.9158150000 52.5126600000
295      17   3 -0.11999999999999999556 46.2969730000 31.8078250000 53.5510060000
296      17   4  0.64670000000000005258 45.0874650000 33.5884750000 50.5993330000
297      17   3 -0.17999999999999999334 46.3831870000 30.4023470000 52.9475430000
298      17   3  0.08999999999999999667 43.7438260000 33.3407730000 49.8868960000
299      17   5  0.02999999999999999889 47.2390080000 32.8271240000 51.8761990000
300      17   5  0.02999999999999999889 46.3351340000 33.9083020000 52.9750500000
301      17   5  0.05999999999999999778 47.1322370000 31.9746250000 54.2461120000
302      17   5  0.05999999999999999778 45.3739550000 31.9175160000 54.1342620000
303      17   5  0.14999999999999999445 43.6408700000 32.2922400000 49.5951300000
304      17   5  0.05999999999999999778 47.3133760000 30.2739980000 52.3787600000
305      17   5  0.05999999999999999778 46.3603290000 29.6380760000 53.7324790000
306      17   5  0.05999999999999999778 45.5447310000 30.2158360000 52.2690290000
307      18   1 -0.23260000000000000120 11.0001630000 18.7497640000  4.3575120000
308      18   1 -0.23260000000000000120  8.8712630000 18.7370640000  3.8456720000
309      18   1 -0.11999999999999999556 11.4759650000 20.6029490000  2.3230190000
310      18   1 -0.11999999999999999556 10.4680250000 18.7544290000  1.6519780000
311      18   2 -0.36299999999999998934  9.8163660000 20.6649980000  4.5415710000
312      18   3  0.12149999999999999689  9.5632430000 20.5252050000  5.9709930000
313      18   3 -0.11999999999999999556  9.2227380000 21.9048390000  6.5089730000
314      18   4  0.64670000000000005258 10.0005340000 19.5330670000  3.8414420000
315      18   3 -0.17999999999999999334  7.9295380000 22.4839540000  5.9265390000
316      18   3  0.08999999999999999667 10.3109610000 19.8965320000  2.3765810000
317      18   5  0.02999999999999999889  8.7333920000 19.8231890000  6.1106610000
318      18   5  0.02999999999999999889 10.4652790000 20.1170060000  6.4387520000
319      18   5  0.05999999999999999778  9.1402780000 21.8147480000  7.6015590000