Generated by pymatgen.io.lammps.data.LammpsData

16006  atoms
15375  bonds
27624  angles
28425  dihedrals

   17  atom types
   18  bond types
   31  angle types
   31  dihedral types

-0.2500000000 60.2500000000  xlo xhi
-0.2500000000 60.2500000000  ylo yhi
-0.2500000000 60.2500000000  zlo zhi

Masses

1   18.998403
2   15.999400
3   12.010700
4   12.010700
5    1.007940
6   14.010000
7   32.060000
8   16.000000
9   12.010000
10  19.000000
11  16.000000
12  12.010000
13  12.010000
14   1.008000
15  32.060000
16  32.060000
17   6.941000

Pair Coeffs

1     0.0530  2.950000
2     0.1400  2.900000
3     0.0660  3.500000
4     0.0660  3.500000
5     0.0300  2.500000
6       0.17  3.249999
7       0.25  3.549340
8       0.21  2.959566
9      0.066  3.499450
10     0.053  2.948875
11      0.14  2.900000
12     0.066  3.500000
13     0.066  3.500000
14      0.03  2.500000
15  0.344001  3.590322
16  0.344001  3.590322
17  0.165057  1.506000

Bond Coeffs

1   455.00  1.355
2   367.00  1.332
3   320.00  1.410
4   470.00  1.351
5   268.00  1.529
6   340.00  1.090
7   268.00  1.529
8   441.80  1.323
9   235.40  1.818
10  637.10  1.442
11  372.00  1.570
12  320.00  1.410
13  320.00  1.380
14  268.00  1.529
15  340.00  1.090
16  340.00  1.090
17  157.87  2.133
18  154.36  2.117


Angle Coeffs

1    90.00  114.194
2    50.00  109.500
3    35.00  109.500
4    37.50  110.700
5    33.00  107.800
6   110.00  107.787
7   110.00  110.361
8    50.00  109.500
9    50.00  109.500
10   50.00  109.500
11   77.00  109.100
12   50.00  109.500
13   40.00  107.000
14   37.50  110.700
15   93.30  107.100
16   82.90  111.800
17  104.00  102.600
18  115.80  118.500
19   94.30  113.600
20   97.50  100.200
21   80.20  125.600
22   60.00  109.500
23   50.00  109.500
24   35.00  109.500
25   37.50  110.700
26   33.00  107.800
27   92.60  111.550
28   35.00  109.500
29   33.00  109.500
30   73.56  112.740
31   73.56  112.740


Dihedral Coeffs

1 3 0.062500000 1 0.000000000 -0.011000000 2 180.000000000 0.280500000 3 0.000000000
2 3 0.062500000 1 0.000000000 -0.011000000 2 180.000000000 0.280500000 3 0.000000000
3 1 0.370500000 3 0.000000000
4 1 0.370500000 3 0.000000000
5 3 1.726500000 1 0.000000000 -1.387000000 2 180.000000000 0.335500000 3 0.000000000
6 3 0.062500000 1 0.000000000 -0.011000000 2 180.000000000 0.280500000 3 0.000000000
7 3 1.119000000 1 0.000000000 -1.163500000 2 180.000000000 -0.341500000 3 0.000000000
8 1 0.234000000 3 0.000000000
9 1 0.150000000 3 0.000000000
10 3 0.301000000 1 0.000000000 -1.359500000 2 180.000000000 0.367000000 3 0.000000000
11 3 0.301000000 1 0.000000000 -1.359500000 2 180.000000000 0.367000000 3 0.000000000
12 1 0.221000000 3 0.000000000
13 1 0.221000000 3 0.000000000
14 2 0.518500000 1 0.000000000 -0.728500000 2 180.000000000
15 2 0.518500000 1 0.000000000 -0.728500000 2 180.000000000
16 1 0.234000000 3 0.000000000
17 1 0.173400000 3 0.000000000
18 1 0.158000000 3 0.000000000
19 1 -0.001800000 3 0.000000000
20 3 3.916460000 1 0.000000000 -1.245000000 2 180.000000000 -0.381800000 3 0.000000000
21 3 0.062500000 1 0.000000000 -0.011000000 2 180.000000000 0.280500000 3 0.000000000
22 3 0.062500000 1 0.000000000 -0.011000000 2 180.000000000 0.280500000 3 0.000000000
23 1 0.370500000 3 0.000000000
24 1 0.370500000 3 0.000000000
25 3 -0.533500000 1 0.000000000 -0.783500000 2 180.000000000 0.337500000 3 0.000000000
26 1 0.370500000 3 0.000000000
27 3 1.119000000 1 0.000000000 -1.163500000 2 180.000000000 -0.341500000 3 0.000000000
28 1 0.234000000 3 0.000000000
29 1 0.150000000 3 0.000000000
30 4 5.431700000 1 0.000000000 -3.590000000 2 180.000000000 1.055600000 3 0.000000000 0.058320000 4 180.000000000
31 4 5.431700000 1 0.000000000 -3.590000000 2 180.000000000 1.055600000 3 0.000000000 0.058320000 4 180.000000000


Atoms

1         1   1 -0.23260000000000000120 36.8938260000 49.4347170000  7.0035770000
2         1   1 -0.23260000000000000120 37.0120020000 48.0079820000  8.6567590000
3         1   1 -0.23260000000000000120 31.5242280000 45.0714140000  6.9935340000
4         1   1 -0.23260000000000000120 33.1936780000 44.3025920000  5.8075340000
5         1   1 -0.11999999999999999556 38.1905620000 47.6126130000  5.3365040000
6         1   1 -0.11999999999999999556 39.2962070000 48.0925180000  7.1885430000
7         1   1 -0.11999999999999999556 32.6287120000 43.9315080000  9.2879910000
8         1   1 -0.11999999999999999556 32.2987080000 42.5028930000  7.6350080000
9         1   2 -0.36299999999999998934 35.8527920000 47.4433010000  6.8060680000
10        1   2 -0.36299999999999998934 33.6167240000 45.7677030000  7.4693070000
11        1   3  0.12149999999999999689 34.5595610000 47.9419710000  7.2181700000
12        1   3  0.12149999999999999689 33.5165360000 46.9859220000  6.6958210000
13        1   4  0.64670000000000005258 36.9313540000 48.0958420000  7.2850090000
14        1   4  0.64670000000000005258 32.8489700000 44.7334090000  7.0684700000
15        1   3  0.08999999999999999667 38.2016580000 47.4571610000  6.6891540000
16        1   3  0.08999999999999999667 33.0495040000 43.5587990000  8.0467720000
17        1   5  0.02999999999999999889 34.5175630000 48.0033730000  8.3103190000
18        1   5  0.02999999999999999889 34.4004580000 48.9344950000  6.7843980000
19        1   5  0.02999999999999999889 32.5195560000 47.4165400000  6.8294900000
20        1   5  0.02999999999999999889 33.6868220000 46.7664060000  5.6368330000
21        1   5  0.14999999999999999445 38.2569970000 46.3924960000  6.9322590000
22        1   5  0.14999999999999999445 34.1012150000 43.2632160000  8.0937300000
23        2   1 -0.23260000000000000120 35.8504200000 31.6583220000 16.2876130000
24        2   1 -0.23260000000000000120 36.8179860000 33.3984360000 17.1922500000
25        2   1 -0.23260000000000000120 34.8540400000 37.3747390000 12.5192060000
26        2   1 -0.23260000000000000120 33.2722190000 37.0990320000 14.0046620000
27        2   1 -0.11999999999999999556 33.4759690000 32.2904680000 17.6078760000
28        2   1 -0.11999999999999999556 35.2230170000 32.0664850000 18.9422150000
29        2   1 -0.11999999999999999556 36.3984240000 38.7209380000 14.4129930000
30        2   1 -0.11999999999999999556 34.3829770000 39.5756970000 14.1137270000
31        2   2 -0.36299999999999998934 35.0468150000 33.7163220000 15.8322530000
32        2   2 -0.36299999999999998934 35.2981350000 36.1824710000 14.3822660000
33        2   3  0.12149999999999999689 35.7703620000 33.8556490000 14.5880610000
34        2   3  0.12149999999999999689 35.0580040000 34.8976910000 13.7625470000
35        2   4  0.64670000000000005258 35.6008280000 32.9162170000 16.7657360000
36        2   4  0.64670000000000005258 34.6344470000 37.2362200000 13.8636010000
37        2   3  0.08999999999999999667 34.6586300000 32.8505250000 17.9841690000
38        2   3  0.08999999999999999667 35.0668950000 38.5122090000 14.6131590000
39        2   5  0.02999999999999999889 36.8017610000 34.1605250000 14.7919950000
40        2   5  0.02999999999999999889 35.7645680000 32.8977860000 14.0579260000
41        2   5  0.02999999999999999889 35.4641300000 34.9062760000 12.7465470000
42        2   5  0.02999999999999999889 33.9819800000 34.6982770000 13.7302030000
43        2   5  0.14999999999999999445 34.4747910000 33.8480220000 18.3926750000
44        2   5  0.14999999999999999445 34.8708040000 38.4223380000 15.6851390000
45        3   1 -0.23260000000000000120 56.9774320000 46.4961250000 53.9595220000
46        3   1 -0.23260000000000000120 55.5810370000 46.9394410000 52.3359140000
47        3   1 -0.23260000000000000120 59.3503490000 51.5420160000 49.8632610000
48        3   1 -0.23260000000000000120 60.0000600000 49.5694990000 49.1763840000
49        3   1 -0.11999999999999999556 58.3382300000 44.7109300000 52.3036160000
50        3   1 -0.11999999999999999556 56.1773970000 44.2943370000 52.5037700000
51        3   1 -0.11999999999999999556 56.9883950000 51.2730470000 48.4029080000
52        3   1 -0.11999999999999999556 58.8281420000 51.0249030000 47.2045950000
53        3   2 -0.36299999999999998934 57.7695750000 47.4067950000 52.0538230000
54        3   2 -0.36299999999999998934 58.1162600000 49.7330510000 50.4058370000
55        3   3  0.12149999999999999689 57.7518430000 48.7640250000 52.5523780000
56        3   3  0.12149999999999999689 58.7127070000 49.5687460000 51.7133650000
57        3   4  0.64670000000000005258 56.8769810000 46.5535320000 52.5957730000
58        3   4  0.64670000000000005258 58.8819490000 50.3193840000 49.4625370000
59        3   3  0.08999999999999999667 57.0921770000 45.1557920000 51.9820610000
60        3   3  0.08999999999999999667 58.0550970000 50.4582500000 48.1686940000
61        3   5  0.02999999999999999889 56.7383830000 49.1714780000 52.4802340000
62        3   5  0.02999999999999999889 58.0803290000 48.7692590000 53.5967180000
63        3   5  0.02999999999999999889 58.8647920000 50.5531570000 52.1662150000
64        3   5  0.02999999999999999889 59.6729960000 49.0514270000 51.6191980000
65        3   5  0.14999999999999999445 56.9857540000 45.1839370000 50.8941480000
66        3   5  0.14999999999999999445 57.6984910000 49.4833430000 47.8250990000
67        4   1 -0.23260000000000000120 45.3381950000 24.6833620000 54.9563470000
68        4   1 -0.23260000000000000120 44.0110500000 23.0613520000 54.3315920000
69        4   1 -0.23260000000000000120 45.2973410000 19.5105030000 59.5510120000
70        4   1 -0.23260000000000000120 43.7632140000 21.0036590000 60.0001080000
71        4   1 -0.11999999999999999556 43.2604060000 25.8167670000 56.4324580000
72        4   1 -0.11999999999999999556 42.7813340000 25.4835970000 54.3011910000
73        4   1 -0.11999999999999999556 43.5217800000 18.1986820000 57.8450490000
74        4   1 -0.11999999999999999556 42.7627360000 18.4800180000 59.9009920000
75        4   2 -0.36299999999999998934 44.4575430000 23.3244970000 56.5268350000
76        4   2 -0.36299999999999998934 44.4918270000 20.7897090000 57.8763490000
77        4   3  0.12149999999999999689 45.6151280000 22.4612010000 56.6020800000
78        4   3  0.12149999999999999689 45.5685720000 21.7539390000 57.9333930000
79        4   4  0.64670000000000005258 44.2499630000 23.9539390000 55.3524400000
80        4   4  0.64670000000000005258 44.2021860000 20.1399160000 59.0225420000
81        4   3  0.08999999999999999667 43.0140260000 24.8650080000 55.4904380000
82        4   3  0.08999999999999999667 43.0787800000 19.1212270000 58.7446410000
83        4   5  0.02999999999999999889 45.5931800000 21.7402680000 55.7786130000
84        4   5  0.02999999999999999889 46.5234610000 23.0690750000 56.5388660000
85        4   5  0.02999999999999999889 46.5130070000 21.2294310000 58.1071810000
86        4   5  0.02999999999999999889 45.3847870000 22.4656340000 58.7447840000
87        4   5  0.14999999999999999445 42.1310780000 24.2880500000 55.7788750000
88        4   5  0.14999999999999999445 42.1892760000 19.6176540000 58.3471340000
89        5   1 -0.23260000000000000120  5.7847650000 59.3236750000 52.7128530000
90        5   1 -0.23260000000000000120  4.7163030000 57.4764460000 52.2346470000
91        5   1 -0.23260000000000000120  7.5118280000 54.1920450000 57.0203720000
92        5   1 -0.23260000000000000120  5.8102840000 55.3421510000 57.7732010000
93        5   1 -0.11999999999999999556  3.7966580000 60.0000000000 54.5488090000
94        5   1 -0.11999999999999999556  3.0485730000 59.6035330000 52.5077330000
95        5   1 -0.11999999999999999556  5.7715520000 52.5720180000 55.5606610000
96        5   1 -0.11999999999999999556  5.3203580000 52.6706650000 57.7214230000
97        5   2 -0.36299999999999998934  5.4570950000 57.7970100000 54.3408660000
98        5   2 -0.36299999999999998934  6.2077350000 55.3042490000 55.5533810000
99        5   3  0.12149999999999999689  6.7575090000 57.1821820000 54.1930260000
100       5   3  0.12149999999999999689  7.0695210000 56.4638180000 55.4819720000
101       5   4  0.64670000000000005258  4.9403740000 58.3863380000 53.2435130000
102       5   4  0.64670000000000005258  6.2430770000 54.5957500000 56.7008400000
103       5   3  0.08999999999999999667  3.5898900000 59.0296870000 53.6162380000
104       5   3  0.08999999999999999667  5.3105540000 53.3761660000 56.5593760000
105       5   5  0.02999999999999999889  6.7420490000 56.4815090000 53.3521090000
106       5   5  0.02999999999999999889  7.5064220000 57.9603730000 54.0137960000
107       5   5  0.02999999999999999889  8.1137710000 56.1370050000 55.4802430000
108       5   5  0.02999999999999999889  6.8858960000 57.1143850000 56.3431830000
109       5   5  0.14999999999999999445  2.8964660000 58.2841330000 54.0149690000
110       5   5  0.14999999999999999445  4.2881570000 53.6891840000 56.3304790000
111       6   1 -0.23260000000000000120 23.4718420000  3.5461090000 12.7357380000
112       6   1 -0.23260000000000000120 24.6554090000  2.9783230000 10.9866410000
113       6   1 -0.23260000000000000120 21.5101250000  7.0315710000  7.0900040000
114       6   1 -0.23260000000000000120 23.0783870000  8.0885610000  8.1891310000
115       6   1 -0.11999999999999999556 25.2313350000  5.6497570000 13.2452170000
116       6   1 -0.11999999999999999556 26.2015360000  3.6689740000 13.1109970000
117       6   1 -0.11999999999999999556 23.4540740000  5.5922940000  5.6995550000
118       6   1 -0.11999999999999999556 23.6750430000  7.7861120000  5.5562480000
119       6   2 -0.36299999999999998934 23.6886800000  5.0155960000 11.0380670000
120       6   2 -0.36299999999999998934 22.9145680000  5.8490880000  8.4011080000
121       6   3  0.12149999999999999689 22.4355670000  4.6600880000 10.4101590000
122       6   3  0.12149999999999999689 22.0201540000  5.8179780000  9.5375180000
123       6   4  0.64670000000000005258 24.2927610000  4.0542310000 11.7656340000
124       6   4  0.64670000000000005258 22.7883820000  6.8980450000  7.5622700000
125       6   3  0.08999999999999999667 25.5712510000  4.6404750000 12.3968320000
126       6   3  0.08999999999999999667 23.7774740000  6.7196650000  6.3931350000
127       6   5  0.02999999999999999889 22.5653290000  3.7514740000  9.8135800000
128       6   5  0.02999999999999999889 21.6793910000  4.4912150000 11.1836290000
129       6   5  0.02999999999999999889 20.9952590000  5.6670350000  9.1852750000
130       6   5  0.02999999999999999889 22.0881130000  6.7623020000 10.0873150000
131       6   5  0.14999999999999999445 26.2482880000  5.0239070000 11.6285380000
132       6   5  0.14999999999999999445 24.8050530000  6.6389050000  6.7581390000
133       7   1 -0.23260000000000000120  6.4238380000 15.9283650000 52.0076900000
134       7   1 -0.23260000000000000120  5.6329970000 16.5777860000 53.9404010000
135       7   1 -0.23260000000000000120  6.5324730000 22.8191830000 52.6208110000
136       7   1 -0.23260000000000000120  4.6560650000 22.1143400000 51.7450040000
137       7   1 -0.11999999999999999556  3.8915440000 16.2149190000 50.8736300000
138       7   1 -0.11999999999999999556  3.9487220000 14.8886970000 52.6401730000
139       7   1 -0.11999999999999999556  5.4723580000 22.4662260000 55.1772500000
140       7   1 -0.11999999999999999556  4.2600410000 23.7662780000 53.8648660000
141       7   2 -0.36299999999999998934  5.5463480000 17.9984080000 52.1905380000
142       7   2 -0.36299999999999998934  5.8390680000 20.7185540000 53.0638260000
143       7   3  0.12149999999999999689  6.8198600000 18.6512850000 52.3975720000
144       7   3  0.12149999999999999689  6.6493230000 20.1051870000 52.0344380000
145       7   4  0.64670000000000005258  5.4582490000 16.7106980000 52.5810920000
146       7   4  0.64670000000000005258  5.4627440000 21.9969260000 52.8539990000
147       7   3  0.08999999999999999667  4.0553870000 16.1799220000 52.2248810000
148       7   3  0.08999999999999999667  4.6655130000 22.4865380000 54.0794380000
149       7   5  0.02999999999999999889  7.1240310000 18.5456520000 53.4438250000
150       7   5  0.02999999999999999889  7.5703990000 18.1936560000 51.7450040000
151       7   5  0.02999999999999999889  7.6265920000 20.5964430000 52.0047460000
152       7   5  0.02999999999999999889  6.1532500000 20.2072200000 51.0637990000
153       7   5  0.14999999999999999445  3.2756280000 16.7805020000 52.7012770000
154       7   5  0.14999999999999999445  3.7932150000 21.8519270000 54.2584180000
155       8   1 -0.23260000000000000120 47.8488970000 57.3590150000 27.8331850000
156       8   1 -0.23260000000000000120 46.9609550000 57.1729860000 29.8230350000
157       8   1 -0.23260000000000000120 42.3220650000 53.1970080000 27.7790880000
158       8   1 -0.23260000000000000120 44.1671530000 52.0868390000 28.1637030000
159       8   1 -0.11999999999999999556 49.3816990000 55.0761990000 28.3022130000
160       8   1 -0.11999999999999999556 49.6291360000 56.6619080000 29.8211310000
161       8   1 -0.11999999999999999556 42.0726220000 53.7282420000 30.5066090000
162       8   1 -0.11999999999999999556 42.2428220000 51.5811920000 30.0132480000
163       8   2 -0.36299999999999998934 46.6500700000 55.5132460000 28.3276060000
164       8   2 -0.36299999999999998934 44.0816560000 54.2793590000 28.6857720000
165       8   3  0.12149999999999999689 45.4253040000 56.0026720000 27.7348520000
166       8   3  0.12149999999999999689 44.5601490000 54.8063370000 27.4265220000
167       8   4  0.64670000000000005258 47.5090310000 56.4433360000 28.7919450000
168       8   4  0.64670000000000005258 43.3904790000 53.1220860000 28.6321330000
169       8   3  0.08999999999999999667 48.7683070000 55.7320440000 29.3257200000
170       8   3  0.08999999999999999667 42.9183170000 52.7602530000 30.0545030000
171       8   5  0.02999999999999999889 44.9200510000 56.6773560000 28.4333120000
172       8   5  0.02999999999999999889 45.6607760000 56.5362410000 26.8083350000
173       8   5  0.02999999999999999889 43.7053900000 55.1148330000 26.8170250000
174       8   5  0.02999999999999999889 45.1341500000 54.0379770000 26.8985190000
175       8   5  0.14999999999999999445 48.5119720000 55.0180260000 30.1132130000
176       8   5  0.14999999999999999445 43.7669640000 52.6715210000 30.7383120000
177       9   1 -0.23260000000000000120  8.3921790000  3.9231930000 35.1506190000
178       9   1 -0.23260000000000000120  6.6742510000  5.1906750000 35.6247100000
179       9   1 -0.23260000000000000120  5.1770960000  6.1046830000 29.4256350000
180       9   1 -0.23260000000000000120  4.3600630000  4.2048760000 30.1383340000
181       9   1 -0.11999999999999999556  6.7223570000  1.6905710000 35.0622340000
182       9   1 -0.11999999999999999556  6.6213220000  2.8235260000 36.9567030000
183       9   1 -0.11999999999999999556  3.4295030000  7.4867030000 31.1048440000
184       9   1 -0.11999999999999999556  2.4351290000  6.0765270000 29.7246900000
185       9   2 -0.36299999999999998934  6.7031870000  4.0772230000 33.6633130000
186       9   2 -0.36299999999999998934  5.3707880000  5.5814450000 31.6115960000
187       9   3  0.12149999999999999689  7.3412650000  5.0975460000 32.8615990000
188       9   3  0.12149999999999999689  6.7134170000  5.0569040000 31.4908580000
189       9   4  0.64670000000000005258  7.0405070000  4.0370050000 34.9683370000
190       9   4  0.64670000000000005258  4.5933110000  5.5089890000 30.5115220000
191       9   3  0.08999999999999999667  6.3074750000  2.8549600000 35.6332160000
192       9   3  0.08999999999999999667  3.2344210000  6.1684810000 30.8205280000
193       9   5  0.02999999999999999889  7.1957510000  6.0779860000 33.3262360000
194       9   5  0.02999999999999999889  8.4111970000  4.8789420000 32.7839060000
195       9   5  0.02999999999999999889  7.2856140000  5.6864950000 30.8027620000
196       9   5  0.02999999999999999889  6.6765530000  4.0307190000 31.1110880000
197       9   5  0.14999999999999999445  5.2241910000  2.9501820000 35.5187540000
198       9   5  0.14999999999999999445  2.7471450000  5.6822720000 31.6701350000
199      10   1 -0.23260000000000000120 44.0044280000 29.7202300000  3.0763710000
200      10   1 -0.23260000000000000120 42.9371200000 29.8149030000  4.9827920000
201      10   1 -0.23260000000000000120 47.4255750000 26.3857130000  8.0811530000
202      10   1 -0.23260000000000000120 48.0175970000 28.4879120000  7.9586030000
203      10   1 -0.11999999999999999556 45.4711280000 31.9850920000  3.7834160000
204      10   1 -0.11999999999999999556 43.2803890000 32.2640860000  3.8584860000
205      10   1 -0.11999999999999999556 45.3243410000 27.0761430000  9.7817190000
206      10   1 -0.11999999999999999556 47.3108820000 27.7501220000 10.4756970000
207      10   2 -0.36299999999999998934 45.1727920000 29.5160560000  4.9951560000
208      10   2 -0.36299999999999998934 45.9757230000 27.8822830000  7.2163270000
209      10   3  0.12149999999999999689 45.1830810000 28.0702000000  4.9767170000
210      10   3  0.12149999999999999689 46.3318890000 27.6130550000  5.8404510000
211      10   4  0.64670000000000005258 44.1363620000 30.1196820000  4.3787640000
212      10   4  0.64670000000000005258 46.9322380000 27.6615510000  8.1416590000
213      10   3  0.08999999999999999667 44.3359350000 31.6464550000  4.4546920000
214      10   3  0.08999999999999999667 46.3452900000 27.9452010000  9.5388100000
215      10   5  0.02999999999999999889 44.2321130000 27.6884920000  5.3617920000
216      10   5  0.02999999999999999889 45.3332870000 27.7233820000  3.9492290000
217      10   5  0.02999999999999999889 46.4863430000 26.5374350000  5.7121810000
218      10   5  0.02999999999999999889 47.2492280000 28.1527130000  5.5837420000
219      10   5  0.14999999999999999445 44.4139110000 31.9811770000  5.4927460000
220      10   5  0.14999999999999999445 45.9724960000 28.9709400000  9.6062880000
221      11   1 -0.23260000000000000120 44.0743420000 39.0750980000 50.6015170000
222      11   1 -0.23260000000000000120 45.9244510000 39.7400080000 49.6436330000
223      11   1 -0.23260000000000000120 43.8975170000 38.0880950000 43.7556670000
224      11   1 -0.23260000000000000120 43.1173400000 40.0550410000 44.3099210000
225      11   1 -0.11999999999999999556 42.9279500000 41.5728560000 50.1243280000
226      11   1 -0.11999999999999999556 44.8338240000 41.6485520000 51.2400000000
227      11   1 -0.11999999999999999556 46.4829030000 39.1340610000 43.6812270000
228      11   1 -0.11999999999999999556 45.0371000000 40.1985180000 42.3932880000
229      11   2 -0.36299999999999998934 44.0245400000 39.6813350000 48.4293070000
230      11   2 -0.36299999999999998934 44.5806000000 39.0315840000 45.6877500000
231      11   3  0.12149999999999999689 44.1493100000 38.3319800000 47.9247110000
232      11   3  0.12149999999999999689 43.6237080000 38.3252340000 46.5110360000
233      11   4  0.64670000000000005258 44.5597610000 39.9231580000 49.6432060000
234      11   4  0.64670000000000005258 44.2283590000 39.2480470000 44.4036350000
235      11   3  0.08999999999999999667 44.2735310000 41.3883560000 50.0277810000
236      11   3  0.08999999999999999667 45.3940610000 39.9532240000 43.6819270000
237      11   5  0.02999999999999999889 45.1992190000 38.0231430000 47.9499150000
238      11   5  0.02999999999999999889 43.5493320000 37.6578980000 48.5445640000
239      11   5  0.02999999999999999889 43.5332310000 37.2946750000 46.1546220000
240      11   5  0.02999999999999999889 42.6503090000 38.8233860000 46.4564570000
241      11   5  0.14999999999999999445 44.6823440000 42.0768700000 49.2831370000
242      11   5  0.14999999999999999445 45.6486540000 40.8947930000 44.1761930000
243      12   1 -0.23260000000000000120 44.5310710000 31.7486990000 12.6502050000
244      12   1 -0.23260000000000000120 43.0455910000 33.3331830000 12.3946510000
245      12   1 -0.23260000000000000120 43.3979780000 35.1580240000 18.5632160000
246      12   1 -0.23260000000000000120 45.0147320000 36.0659750000 17.4028370000
247      12   1 -0.11999999999999999556 46.5740120000 33.5820870000 12.1544180000
248      12   1 -0.11999999999999999556 45.0458760000 33.4752540000 10.5618740000
249      12   1 -0.11999999999999999556 41.5322310000 36.6851770000 17.1594390000
250      12   1 -0.11999999999999999556 43.1206310000 37.8692410000 18.1377920000
251      12   2 -0.36299999999999998934 44.5633050000 33.5146620000 14.0533560000
252      12   2 -0.36299999999999998934 43.4398150000 34.8620860000 16.3270610000
253      12   3  0.12149999999999999689 43.8049600000 32.8559620000 15.0935360000
254      12   3  0.12149999999999999689 44.0928530000 33.5728640000 16.3888920000
255      12   4  0.64670000000000005258 44.3432060000 33.0971520000 12.7901330000
256      12   4  0.64670000000000005258 43.6857510000 35.7126560000 17.3448660000
257      12   3  0.08999999999999999667 45.2806310000 33.8712600000 11.8421770000
258      12   3  0.08999999999999999667 42.8585900000 36.9957890000 17.1295280000
259      12   5  0.02999999999999999889 42.7372110000 32.8976730000 14.8558500000
260      12   5  0.02999999999999999889 44.1275770000 31.8125630000 15.1697800000
261      12   5  0.02999999999999999889 43.6832020000 33.0013860000 17.2272640000
262      12   5  0.02999999999999999889 45.1704070000 33.7105240000 16.5251550000
263      12   5  0.14999999999999999445 45.1191840000 34.9496100000 11.9244500000
264      12   5  0.14999999999999999445 43.1006470000 37.4616030000 16.1703120000
265      13   1 -0.23260000000000000120 13.4281250000 51.1345630000 36.7928520000
266      13   1 -0.23260000000000000120 13.5527150000 49.5642470000 38.3098000000
267      13   1 -0.23260000000000000120  7.8933810000 51.1564330000 40.9446260000
268      13   1 -0.23260000000000000120  7.5911540000 49.8717470000 39.2002090000
269      13   1 -0.11999999999999999556 11.9923590000 49.4160240000 35.1297470000
270      13   1 -0.11999999999999999556 13.9418810000 48.6155050000 35.7940830000
271      13   1 -0.11999999999999999556  9.0823880000 49.0304490000 42.3048680000
272      13   1 -0.11999999999999999556  7.0561380000 48.5960900000 41.5381580000
273      13   2 -0.36299999999999998934 11.5229370000 50.3337780000 37.6970080000
274      13   2 -0.36299999999999998934  9.6937610000 50.2742470000 39.9101690000
275      13   3  0.12149999999999999689 11.4025480000 51.3888670000 38.6784550000
276      13   3  0.12149999999999999689  9.9576740000 51.4479570000 39.1069710000
277      13   4  0.64670000000000005258 12.7706730000 50.0374810000 37.2800520000
278      13   4  0.64670000000000005258  8.4133160000 50.0749560000 40.2851700000
279      13   3  0.08999999999999999667 12.6847630000 48.9397530000 36.2010510000
280      13   3  0.08999999999999999667  8.3476640000 48.8190380000 41.1769990000
281      13   5  0.02999999999999999889 12.0524040000 51.1751450000 39.5330510000
282      13   5  0.02999999999999999889 11.6911630000 52.3411570000 38.2219230000
283      13   5  0.02999999999999999889  9.7871530000 52.3439330000 39.7114690000
284      13   5  0.02999999999999999889  9.2945110000 51.4564770000 38.2358890000
285      13   5  0.14999999999999999445 12.1864100000 48.0467380000 36.5881470000
286      13   5  0.14999999999999999445  8.7360800000 47.9433700000 40.6497340000
287      14   1 -0.23260000000000000120 44.3320680000 57.1328130000 37.6925460000
288      14   1 -0.23260000000000000120 44.4671990000 57.3785630000 35.5236990000
289      14   1 -0.23260000000000000120 38.1022660000 58.1080620000 34.8448200000
290      14   1 -0.23260000000000000120 39.0321650000 60.0011900000 35.4245630000
291      14   1 -0.11999999999999999556 44.4566180000 59.9006650000 38.0153460000
292      14   1 -0.11999999999999999556 46.1397180000 59.0454330000 36.8670600000
293      14   1 -0.11999999999999999556 39.4042460000 58.2228510000 32.3799720000
294      14   1 -0.11999999999999999556 38.1834380000 60.0051200000 32.8440220000
295      14   2 -0.36299999999999998934 42.7094530000 58.2733580000 36.6179410000
296      14   2 -0.36299999999999998934 40.3511500000 58.2265330000 34.9797320000
297      14   3  0.12149999999999999689 41.8132570000 57.1429290000 36.5184000000
298      14   3  0.12149999999999999689 40.4196970000 57.6842250000 36.3189770000
299      14   4  0.64670000000000005258 44.0276900000 57.9947750000 36.6739330000
300      14   4  0.64670000000000005258 39.2171840000 58.8786390000 34.6499460000
301      14   3  0.08999999999999999667 44.8065170000 59.3151920000 36.8368980000
302      14   3  0.08999999999999999667 39.3119580000 59.3241330000 33.1770070000
303      14   5  0.02999999999999999889 42.1081630000 56.5100920000 35.6752690000
304      14   5  0.02999999999999999889 41.8553840000 56.5659660000 37.4478710000
305      14   5  0.02999999999999999889 39.6903990000 56.8744800000 36.4174970000
306      14   5  0.02999999999999999889 40.2009440000 58.4711570000 37.0480360000
307      14   5  0.14999999999999999445 44.5931050000 60.0013060000 36.0126540000
308      14   5  0.14999999999999999445 40.1849610000 59.9626300000 33.0162040000
309      15   1 -0.23260000000000000120 25.4802290000 35.3077330000 42.1747320000
310      15   1 -0.23260000000000000120 26.9539260000 36.6388470000 43.0906470000
311      15   1 -0.23260000000000000120 25.7919130000 34.4325640000 49.0309720000
312      15   1 -0.23260000000000000120 27.1846910000 33.1113000000 47.9825540000
313      15   1 -0.11999999999999999556 27.4106170000 33.3038660000 41.9776540000
314      15   1 -0.11999999999999999556 27.9836280000 35.2116000000 41.0210870000
315      15   1 -0.11999999999999999556 27.7220630000 36.4469190000 49.0574270000
316      15   1 -0.11999999999999999556 28.3890790000 34.5406740000 49.9538190000
317      15   2 -0.36299999999999998934 26.4169820000 34.7154810000 44.1394790000
318      15   2 -0.36299999999999998934 26.5447160000 35.0332590000 46.9908320000
319      15   3  0.12149999999999999689 25.3313460000 35.2232360000 44.9485070000