Generated by pymatgen.io.lammps.data.LammpsData

17024  atoms
16276  bonds
29347  angles
30654  dihedrals

   16  atom types
   15  bond types
   26  angle types
   23  dihedral types

-0.2500000000 60.2500000000  xlo xhi
-0.2500000000 60.2500000000  ylo yhi
-0.2500000000 60.2500000000  zlo zhi

Masses

1   18.998403
2   15.999400
3   12.010700
4    1.007940
5   14.010000
6   32.060000
7   16.000000
8   12.010000
9   19.000000
10  16.000000
11  12.010000
12  12.010000
13   1.008000
14  32.060000
15  32.060000
16   6.941000

Pair Coeffs

1     0.0530  2.950000
2     0.1400  2.900000
3     0.0660  3.500000
4     0.0300  2.500000
5       0.17  3.249999
6       0.25  3.549340
7       0.21  2.959566
8      0.066  3.499450
9      0.053  2.948875
10      0.14  2.900000
11     0.066  3.500000
12     0.066  3.500000
13      0.03  2.500000
14  0.344001  3.590322
15  0.344001  3.590322
16  0.165057  1.506000

Bond Coeffs

1   367.00  1.332
2   320.00  1.410
3   268.00  1.529
4   340.00  1.090
5   441.80  1.323
6   235.40  1.818
7   637.10  1.442
8   372.00  1.570
9   320.00  1.410
10  320.00  1.380
11  268.00  1.529
12  340.00  1.090
13  340.00  1.090
14  157.87  2.133
15  154.36  2.117


Angle Coeffs

1    60.00  109.50
2    58.35  112.70
3    37.50  110.70
4    33.00  107.80
5    50.00  109.50
6    35.00  109.50
7    77.00  109.10
8    50.00  109.50
9    40.00  107.00
10   93.30  107.10
11   82.90  111.80
12  104.00  102.60
13  115.80  118.50
14   94.30  113.60
15   97.50  100.20
16   80.20  125.60
17   60.00  109.50
18   50.00  109.50
19   35.00  109.50
20   37.50  110.70
21   33.00  107.80
22   92.60  111.55
23   35.00  109.50
24   33.00  109.50
25   73.56  112.74
26   73.56  112.74


Dihedral Coeffs

1 3 0.062500000 1 0.000000000 -0.011000000 2 180.000000000 0.280500000 3 0.000000000
2 1 0.370500000 3 0.000000000
3 3 0.627500000 1 0.000000000 -0.309500000 2 180.000000000 0.273000000 3 0.000000000
4 1 0.150000000 3 0.000000000
5 1 0.234000000 3 0.000000000
6 1 0.150000000 3 0.000000000
7 2 0.518500000 1 0.000000000 -0.728500000 2 180.000000000
8 1 0.221000000 3 0.000000000
9 1 0.173400000 3 0.000000000
10 1 0.158000000 3 0.000000000
11 1 -0.001800000 3 0.000000000
12 3 3.916460000 1 0.000000000 -1.245000000 2 180.000000000 -0.381800000 3 0.000000000
13 3 0.062500000 1 0.000000000 -0.011000000 2 180.000000000 0.280500000 3 0.000000000
14 3 0.062500000 1 0.000000000 -0.011000000 2 180.000000000 0.280500000 3 0.000000000
15 1 0.370500000 3 0.000000000
16 1 0.370500000 3 0.000000000
17 3 -0.533500000 1 0.000000000 -0.783500000 2 180.000000000 0.337500000 3 0.000000000
18 1 0.370500000 3 0.000000000
19 3 1.119000000 1 0.000000000 -1.163500000 2 180.000000000 -0.341500000 3 0.000000000
20 1 0.234000000 3 0.000000000
21 1 0.150000000 3 0.000000000
22 4 5.431700000 1 0.000000000 -3.590000000 2 180.000000000 1.055600000 3 0.000000000 0.058320000 4 180.000000000
23 4 5.431700000 1 0.000000000 -3.590000000 2 180.000000000 1.055600000 3 0.000000000 0.058320000 4 180.000000000


Atoms

1         1   1 -0.11999999999999999556 19.2330760000 53.1479320000 22.3566440000
2         1   1 -0.11999999999999999556 20.5090050000 53.9334940000 23.9920410000
3         1   2 -0.40000000000000002220 21.5627510000 53.5065970000 20.5679970000
4         1   3 -0.11999999999999999556 21.0366430000 52.7676280000 18.3507970000
5         1   3  0.14000000000000001332 20.9188320000 52.4530340000 19.8353750000
6         1   3  0.14000000000000001332 21.5830650000 53.3540870000 21.9691780000
7         1   3 -0.17999999999999999334 20.2948360000 54.0476270000 17.9462310000
8         1   3  0.08999999999999999667 20.3363790000 53.9313140000 22.6252150000
9         1   4  0.02999999999999999889 21.4138730000 51.4978960000 20.0730190000
10        1   4  0.02999999999999999889 19.8642210000 52.3740380000 20.1325870000
11        1   4  0.05999999999999999778 22.1007870000 52.8491030000 18.0922890000
12        1   4  0.05999999999999999778 20.6365830000 51.9082900000 17.7951230000
13        1   4  0.02999999999999999889 22.4453990000 53.9146440000 22.3458770000
14        1   4  0.02999999999999999889 21.6853440000 52.3019380000 22.2756090000
15        1   4  0.05999999999999999778 20.7008730000 54.9151200000 18.4766320000
16        1   4  0.05999999999999999778 20.3865640000 54.2327150000 16.8696210000
17        1   4  0.05999999999999999778 19.2256380000 53.9740960000 18.1859690000
18        1   4  0.14999999999999999445 20.1034160000 54.9501910000 22.3017960000
19        2   1 -0.11999999999999999556 26.3494010000  1.2256320000 55.3854080000
20        2   1 -0.11999999999999999556 26.4253080000  0.0000000000 53.5383320000
21        2   2 -0.40000000000000002220 26.8171610000  3.5844150000 53.6612770000
22        2   3 -0.11999999999999999556 26.8284210000  5.5895690000 54.9720280000
23        2   3  0.14000000000000001332 26.1312420000  4.2588640000 54.7271080000
24        2   3  0.14000000000000001332 26.2745080000  2.3426960000 53.2731500000
25        2   3 -0.17999999999999999334 28.2727480000  5.4307770000 55.4629960000
26        2   3  0.08999999999999999667 26.8365480000  1.1911250000 54.0952170000
27        2   4  0.02999999999999999889 25.0810350000  4.4160210000 54.4335130000
28        2   4  0.02999999999999999889 26.1428600000  3.6418810000 55.6359390000
29        2   4  0.05999999999999999778 26.8066940000  6.1739020000 54.0425380000
30        2   4  0.05999999999999999778 26.2369460000  6.1443500000 55.7134200000
31        2   4  0.02999999999999999889 26.5593010000  2.1742800000 52.2289880000
32        2   4  0.02999999999999999889 25.1765210000  2.3228630000 53.3467010000
33        2   4  0.05999999999999999778 28.8780980000  4.8994160000 54.7214160000
34        2   4  0.05999999999999999778 28.7366060000  6.4071780000 55.6453110000
35        2   4  0.05999999999999999778 28.3080970000  4.8601740000 56.4006680000
36        2   4  0.14999999999999999445 27.9289420000  1.1887460000 54.1556400000
37        3   1 -0.11999999999999999556 52.3481550000 47.3116700000 32.6109200000
38        3   1 -0.11999999999999999556 50.8304110000 48.6452600000 31.6957050000
39        3   2 -0.40000000000000002220 50.1037070000 45.5660680000 33.4298250000
40        3   3 -0.11999999999999999556 50.9259900000 43.6237210000 34.5655980000
41        3   3  0.14000000000000001332 51.1232750000 44.5564810000 33.3790660000
42        3   3  0.14000000000000001332 50.1126070000 46.4987840000 32.3729700000
43        3   3 -0.17999999999999999334 51.1201780000 44.3208870000 35.9178540000
44        3   3  0.08999999999999999667 51.0211930000 47.6849620000 32.6649560000
45        3   4  0.02999999999999999889 51.0336960000 44.0052100000 32.4293780000
46        3   4  0.02999999999999999889 52.1184720000 45.0204760000 33.4117680000
47        3   4  0.05999999999999999778 49.9201710000 43.1871130000 34.5058380000
48        3   4  0.05999999999999999778 51.6413980000 42.7962600000 34.4617530000
49        3   4  0.02999999999999999889 49.0918150000 46.8815550000 32.2670730000
50        3   4  0.02999999999999999889 50.4209160000 46.0478000000 31.4174920000
51        3   4  0.05999999999999999778 50.3966650000 45.1330860000 36.0427320000
52        3   4  0.05999999999999999778 50.9880680000 43.6161730000 36.7471230000
53        3   4  0.05999999999999999778 52.1279850000 44.7499670000 35.9971180000
54        3   4  0.14999999999999999445 50.8465640000 48.1393220000 33.6447740000
55        4   1 -0.11999999999999999556 18.8139260000  3.5617260000 11.7512710000
56        4   1 -0.11999999999999999556 19.4106380000  3.2603170000  9.6363920000
57        4   2 -0.40000000000000002220 21.1593530000  1.9167960000 12.4918510000
58        4   3 -0.11999999999999999556 21.3426750000  1.7461420000 14.8743100000
59        4   3  0.14000000000000001332 21.0703370000  2.6807580000 13.7042040000
60        4   3  0.14000000000000001332 20.9727740000  2.6408570000 11.2969010000
61        4   3 -0.17999999999999999334 20.2891740000  0.6409720000 15.0195060000
62        4   3  0.08999999999999999667 19.5048890000  2.7229820000 10.9014630000
63        4   4  0.02999999999999999889 21.8145620000  3.4924520000 13.6708590000
64        4   4  0.02999999999999999889 20.0740420000  3.1347160000 13.7941740000
65        4   4  0.05999999999999999778 22.3397280000  1.3041540000 14.7462460000
66        4   4  0.05999999999999999778 21.3773400000  2.3563920000 15.7873700000
67        4   4  0.02999999999999999889 21.5001080000  2.1013270000 10.5028160000
68        4   4  0.02999999999999999889 21.3772610000  3.6626650000 11.3575540000
69        4   4  0.05999999999999999778 20.2618170000  0.0113990000 14.1241720000
70        4   4  0.05999999999999999778 20.5074720000 -0.0008470000 15.8810020000
71        4   4  0.05999999999999999778 19.2881690000  1.0692930000 15.1630160000
72        4   4  0.14999999999999999445 18.9950630000  1.7549850000 10.9077590000
73        5   1 -0.11999999999999999556 35.6572700000  0.0001590000 44.5486600000
74        5   1 -0.11999999999999999556 36.1935180000  0.6576490000 46.5979940000
75        5   2 -0.40000000000000002220 33.5611990000  2.0882770000 44.5877960000
76        5   3 -0.11999999999999999556 32.3863340000  2.1333750000 42.5005730000
77        5   3  0.14000000000000001332 33.7518140000  2.0344470000 43.1657800000
78        5   3  0.14000000000000001332 34.7366170000  2.0498470000 45.3649030000
79        5   3 -0.17999999999999999334 31.4707240000  0.9469480000 42.8267560000
80        5   3  0.08999999999999999667 35.1686550000  0.6239560000 45.6779200000
81        5   4  0.02999999999999999889 34.3974750000  2.8729950000 42.8595280000
82        5   4  0.02999999999999999889 34.2528560000  1.0978870000 42.8854410000
83        5   4  0.05999999999999999778 31.9118980000  3.0740000000 42.8104190000
84        5   4  0.05999999999999999778 32.5478920000  2.1979190000 41.4156690000
85        5   4  0.02999999999999999889 34.5150270000  2.5452820000 46.3163170000
86        5   4  0.02999999999999999889 35.5763290000  2.5727070000 44.8823270000
87        5   4  0.05999999999999999778 31.2834230000  0.8864270000 43.9037840000
88        5   4  0.05999999999999999778 30.5046510000  1.0430740000 42.3176180000
89        5   4  0.05999999999999999778 31.9269320000 -0.0000150000 42.5086340000
90        5   4  0.14999999999999999445 34.3630950000 -0.0000080000 46.0763220000
91        6   1 -0.11999999999999999556 58.2643110000 30.7874750000 29.3747970000
92        6   1 -0.11999999999999999556 59.9196510000 31.7500840000 28.2554860000
93        6   2 -0.40000000000000002220 57.6079380000 33.4758930000 30.4221110000
94        6   3 -0.11999999999999999556 55.6821770000 33.3727420000 31.8432530000
95        6   3  0.14000000000000001332 56.2967770000 32.9014860000 30.5329070000
96        6   3  0.14000000000000001332 58.3106070000 33.1737360000 29.2380770000
97        6   3 -0.17999999999999999334 56.4429820000 32.8744830000 33.0782670000
98        6   3  0.08999999999999999667 59.1053600000 31.8808570000 29.3590460000
99        6   4  0.02999999999999999889 55.6885550000 33.2305590000 29.6752320000
100       6   4  0.02999999999999999889 56.3595110000 31.8050710000 30.5061330000
101       6   4  0.05999999999999999778 55.6446640000 34.4702130000 31.8390790000
102       6   4  0.05999999999999999778 54.6431380000 33.0165150000 31.8712970000
103       6   4  0.02999999999999999889 59.0243960000 33.9865100000 29.0658880000
104       6   4  0.02999999999999999889 57.6465320000 33.0965960000 28.3637580000
105       6   4  0.05999999999999999778 57.4739990000 33.2428770000 33.0732130000
106       6   4  0.05999999999999999778 55.9628180000 33.2178620000 34.0020060000
107       6   4  0.05999999999999999778 56.4756240000 31.7770340000 33.1028670000
108       6   4  0.14999999999999999445 59.7265750000 31.8314430000 30.2582850000
109       7   1 -0.11999999999999999556 21.3949770000 30.7208800000 44.3571730000
110       7   1 -0.11999999999999999556 20.4613660000 32.1436490000 42.9345970000
111       7   2 -0.40000000000000002220 20.0319910000 32.2164280000 46.5160820000
112       7   3 -0.11999999999999999556 20.4907490000 31.2171290000 48.6444100000
113       7   3  0.14000000000000001332 20.1286700000 30.9523160000 47.1899020000
114       7   3  0.14000000000000001332 19.6611130000 32.1591100000 45.1573530000
115       7   3 -0.17999999999999999334 21.8699390000 31.8666850000 48.8125150000
116       7   3  0.08999999999999999667 20.8661540000 31.9898500000 44.2424610000
117       7   4  0.02999999999999999889 19.1597780000 30.4329850000 47.1166000000
118       7   4  0.02999999999999999889 20.8902170000 30.3234100000 46.7089640000
119       7   4  0.05999999999999999778 19.7152540000 31.8549480000 49.0890030000
120       7   4  0.05999999999999999778 20.4591920000 30.2561050000 49.1761270000
121       7   4  0.02999999999999999889 19.1874020000 33.1146820000 44.9079040000
122       7   4  0.02999999999999999889 18.9472870000 31.3472140000 44.9508170000
123       7   4  0.05999999999999999778 21.9059330000 32.8367260000 48.3060970000
124       7   4  0.05999999999999999778 22.1040160000 32.0261220000 49.8715470000
125       7   4  0.05999999999999999778 22.6575130000 31.2319640000 48.3848190000
126       7   4  0.14999999999999999445 21.6720360000 32.7018820000 44.4438210000
127       8   1 -0.11999999999999999556 -0.0010170000 15.8416860000 22.5628710000
128       8   1 -0.11999999999999999556  1.4385080000 14.1756640000 22.8307510000
129       8   2 -0.40000000000000002220  2.0026070000 17.0883490000 20.7777660000
130       8   3 -0.11999999999999999556  1.1618860000 19.1461300000 19.8847010000
131       8   3  0.14000000000000001332  0.8332730000 17.6953140000 20.2071390000
132       8   3  0.14000000000000001332  1.8868270000 15.7212370000 21.1011560000
133       8   3 -0.17999999999999999334  1.4793070000 19.9824220000 21.1305760000
134       8   3  0.08999999999999999667  1.3369010000 15.5104360000 22.5050590000
135       8   4  0.02999999999999999889  0.5543660000 17.1454720000 19.2940590000
136       8   4  0.02999999999999999889 -0.0073730000 17.6354270000 20.9117700000
137       8   4  0.05999999999999999778  2.0104750000 19.1677020000 19.1880660000
138       8   4  0.05999999999999999778  0.3000200000 19.5730620000 19.3534730000
139       8   4  0.02999999999999999889  2.8944300000 15.2926980000 21.0722420000
140       8   4  0.02999999999999999889  1.2503360000 15.1738160000 20.3894060000
141       8   4  0.05999999999999999778  2.3515880000 19.5799100000 21.6557840000
142       8   4  0.05999999999999999778  1.6933860000 21.0235600000 20.8623140000
143       8   4  0.05999999999999999778  0.6326850000 19.9815610000 21.8300720000
144       8   4  0.14999999999999999445  1.8545570000 16.0962530000 23.2704560000
145       9   1 -0.11999999999999999556 11.0172090000 52.4462840000 44.3108550000
146       9   1 -0.11999999999999999556  8.8402580000 52.0720130000 44.5119200000
147       9   2 -0.40000000000000002220 10.3586360000 54.1450400000 41.9793770000
148       9   3 -0.11999999999999999556 12.3474560000 55.1188960000 41.0655690000
149       9   3  0.14000000000000001332 11.5897010000 54.7878990000 42.3434850000
150       9   3  0.14000000000000001332  9.5067060000 53.8033300000 43.0491560000
151       9   3 -0.17999999999999999334 12.7652840000 53.8734190000 40.2740190000
152       9   3  0.08999999999999999667  9.8253020000 52.4269660000 43.6165360000
153       9   4  0.02999999999999999889 11.3605140000 55.7042940000 42.9105150000
154       9   4  0.02999999999999999889 12.1860560000 54.1278880000 42.9880970000
155       9   4  0.05999999999999999778 11.7191560000 55.7698010000 40.4431290000
156       9   4  0.05999999999999999778 13.2349790000 55.7028150000 41.3459720000
157       9   4  0.02999999999999999889  8.4852030000 53.7709070000 42.6551690000
158       9   4  0.02999999999999999889  9.5456000000 54.5377300000 43.8680100000
159       9   4  0.05999999999999999778 11.8869860000 53.2954020000 39.9686940000
160       9   4  0.05999999999999999778 13.3227670000 54.1489170000 39.3712040000
161       9   4  0.05999999999999999778 13.4067320000 53.2199290000 40.8802880000
162       9   4  0.14999999999999999445  9.9009830000 51.6460100000 42.8540650000
163      10   1 -0.11999999999999999556 38.7492580000 46.1192710000 21.7304580000
164      10   1 -0.11999999999999999556 40.0262410000 47.9080470000 22.0291510000
165      10   2 -0.40000000000000002220 37.0417010000 47.8104790000 20.0043800000
166      10   3 -0.11999999999999999556 35.2348090000 46.5248170000 19.0982600000
167      10   3  0.14000000000000001332 36.7254310000 46.5444460000 19.4056350000
168      10   3  0.14000000000000001332 38.4002520000 48.0166920000 20.3186990000
169      10   3 -0.17999999999999999334 34.3600570000 46.6024450000 20.3556890000
170      10   3  0.08999999999999999667 38.7509570000 47.4985920000 21.7066390000
171      10   4  0.02999999999999999889 37.3163310000 46.4275690000 18.4831350000
172      10   4  0.02999999999999999889 36.9916400000 45.7253280000 20.0875120000
173      10   4  0.05999999999999999778 35.0039930000 47.3606010000 18.4244210000
174      10   4  0.05999999999999999778 35.0203820000 45.5992900000 18.5462590000
175      10   4  0.02999999999999999889 38.5755690000 49.0978920000 20.3146090000
176      10   4  0.02999999999999999889 39.0762680000 47.5471530000 19.5880050000
177      10   4  0.05999999999999999778 34.5482230000 47.5323980000 20.9020540000
178      10   4  0.05999999999999999778 33.2951560000 46.5681640000 20.0976750000
179      10   4  0.05999999999999999778 34.5703230000 45.7635520000 21.0325300000
180      10   4  0.14999999999999999445 38.0665850000 47.8422780000 22.4879820000
181      11   1 -0.11999999999999999556 27.7528050000  5.6929490000 33.2994820000
182      11   1 -0.11999999999999999556 29.7623770000  4.8311120000 32.9273520000
183      11   2 -0.40000000000000002220 28.3183150000  7.5822020000 31.0935340000
184      11   3 -0.11999999999999999556 26.4391970000  9.0208270000 30.7218950000
185      11   3  0.14000000000000001332 26.8862460000  7.5909960000 30.9912480000
186      11   3  0.14000000000000001332 28.9093310000  6.3197980000 31.3033400000
187      11   3 -0.17999999999999999334 26.7639770000  9.9799390000 31.8738370000
188      11   3  0.08999999999999999667 29.0012680000  5.9702680000 32.7822500000
189      11   4  0.02999999999999999889 26.5824330000  6.9248170000 30.1680020000
190      11   4  0.02999999999999999889 26.4373370000  7.2126880000 31.9197640000
191      11   4  0.05999999999999999778 26.9137380000  9.3685350000 29.7946520000
192      11   4  0.05999999999999999778 25.3556880000  9.0027700000 30.5403260000
193      11   4  0.02999999999999999889 29.9305550000  6.3683130000 30.9102840000
194      11   4  0.02999999999999999889 28.3700850000  5.5123360000 30.7850760000
195      11   4  0.05999999999999999778 27.8438790000 10.0241410000 32.0487420000
196      11   4  0.05999999999999999778 26.4126320000 10.9945650000 31.6528160000
197      11   4  0.05999999999999999778 26.2832360000  9.6518790000 32.8051430000
198      11   4  0.14999999999999999445 29.4418920000  6.7638700000 33.3930100000
199      12   1 -0.11999999999999999556 22.6149770000 31.0067520000 10.4825300000
200      12   1 -0.11999999999999999556 22.7465890000 28.8691170000  9.9056240000
201      12   2 -0.40000000000000002220 25.3664270000 31.3047370000  9.4356260000
202      12   3 -0.11999999999999999556 26.0926470000 33.5795140000  9.6275450000
203      12   3  0.14000000000000001332 24.9401490000 32.6622610000  9.2438560000
204      12   3  0.14000000000000001332 24.4274220000 30.3131000000  9.0864760000
205      12   3 -0.17999999999999999334 26.4692720000 33.4841770000 11.1112600000
206      12   3  0.08999999999999999667 23.4974580000 29.9737910000 10.2431260000
207      12   4  0.02999999999999999889 24.6628470000 32.8041080000  8.1870620000
208      12   4  0.02999999999999999889 24.0553670000 32.8726220000  9.8600440000
209      12   4  0.05999999999999999778 26.9601900000 33.3348520000  9.0003480000
210      12   4  0.05999999999999999778 25.7970940000 34.6081450000  9.3788460000
211      12   4  0.02999999999999999889 24.9884680000 29.4064550000  8.8355430000
212      12   4  0.02999999999999999889 23.8159610000 30.6010600000  8.2178140000
213      12   4  0.05999999999999999778 26.7882210000 32.4681890000 11.3657710000
214      12   4  0.05999999999999999778 27.2892500000 34.1698920000 11.3545530000
215      12   4  0.05999999999999999778 25.6140160000 33.7407760000 11.7506040000
216      12   4  0.14999999999999999445 24.0223720000 29.7652870000 11.1801280000
217      13   1 -0.11999999999999999556 31.8120510000 38.8440050000  9.2124110000
218      13   1 -0.11999999999999999556 32.0232610000 36.8791730000  8.2052120000
219      13   2 -0.40000000000000002220 34.5178040000 38.3976950000 10.3237120000
220      13   3 -0.11999999999999999556 35.1969770000 40.2731310000 11.6504760000
221      13   3  0.14000000000000001332 34.5324640000 39.8330510000 10.3537220000
222      13   3  0.14000000000000001332 33.9694180000 37.8152120000  9.1631230000
223      13   3 -0.17999999999999999334 34.4129590000 39.8547540000 12.9005250000
224      13   3  0.08999999999999999667 32.4625050000 37.6290220000  9.2742340000
225      13   4  0.02999999999999999889 35.0943620000 40.2032520000  9.4813390000
226      13   4  0.02999999999999999889 33.5078680000 40.2242270000 10.2907780000
227      13   4  0.05999999999999999778 36.2125790000 39.8568170000 11.6837190000
228      13   4  0.05999999999999999778 35.2995960000 41.3666160000 11.6181300000
229      13   4  0.02999999999999999889 34.4186680000 36.8223490000  9.0529330000
230      13   4  0.02999999999999999889 34.1843550000 38.4019560000  8.2570810000
231      13   4  0.05999999999999999778 34.3244160000 38.7648790000 12.9558900000
232      13   4  0.05999999999999999778 34.9108870000 40.2031000000 13.8129310000
233      13   4  0.05999999999999999778 33.3991050000 40.2766470000 12.8874530000
234      13   4  0.14999999999999999445 32.1495400000 37.1346140000 10.1986770000
235      14   1 -0.11999999999999999556 16.9373700000 28.1804500000 10.8674180000
236      14   1 -0.11999999999999999556 17.3401960000 27.1336530000  8.9538950000
237      14   2 -0.40000000000000002220 18.8385400000 26.2951690000 12.1270010000
238      14   3 -0.11999999999999999556 19.0874640000 26.7904350000 14.4575780000
239      14   3  0.14000000000000001332 18.9980380000 27.3779350000 13.0562690000
240      14   3  0.14000000000000001332 18.7791530000 26.6596750000 10.7666380000
241      14   3 -0.17999999999999999334 17.8025950000 26.0751690000 14.8932980000
242      14   3  0.08999999999999999667 17.3594790000 26.9850540000 10.3234070000
243      14   4  0.02999999999999999889 19.9166240000 27.9321010000 12.8054090000
244      14   4  0.02999999999999999889 18.1494960000 28.0714200000 12.9798920000
245      14   4  0.05999999999999999778 19.9378700000 26.0966440000 14.4940620000
246      14   4  0.05999999999999999778 19.3146310000 27.6127790000 15.1499880000
247      14   4  0.02999999999999999889 19.1191190000 25.7975540000 10.1827580000
248      14   4  0.02999999999999999889 19.4250080000 27.5199400000 10.5338400000
249      14   4  0.05999999999999999778 17.5785940000 25.2383650000 14.2237320000
250      14   4  0.05999999999999999778 17.8970460000 25.6809250000 15.9118320000
251      14   4  0.05999999999999999778 16.9457350000 26.7618570000 14.8754920000
252      14   4  0.14999999999999999445 16.6280720000 26.2203150000 10.6012540000
253      15   1 -0.11999999999999999556 20.1522790000 41.3891650000 10.6310690000
254      15   1 -0.11999999999999999556 20.1941690000 39.9765540000  8.9215660000
255      15   2 -0.40000000000000002220 23.0918050000 41.5807910000 10.3522390000
256      15   3 -0.11999999999999999556 23.9853890000 43.1211290000 11.9546450000
257      15   3  0.14000000000000001332 22.8713870000 42.8679990000 10.9487890000
258      15   3  0.14000000000000001332 22.1672660000 41.2001470000  9.3586000000
259      15   3 -0.17999999999999999334 23.9754710000 42.1304920000 13.1254940000
260      15   3  0.08999999999999999667 20.9521750000 40.4969430000  9.9475480000
261      15   4  0.02999999999999999889 22.8775520000 43.6346250000 10.1575390000
262      15   4  0.02999999999999999889 21.8901420000 42.8944680000 11.4419780000
263      15   4  0.05999999999999999778 24.9490840000 43.0774050000 11.4300040000
264      15   4  0.05999999999999999778 23.8701140000 44.1479110000 12.3284310000
265      15   4  0.02999999999999999889 22.6735240000 40.4887350000  8.6972830000
266      15   4  0.02999999999999999889 21.8207930000 42.0548200000  8.7578750000
267      15   4  0.05999999999999999778 24.1132120000 41.1051880000 12.7670090000
268      15   4  0.05999999999999999778 24.7788230000 42.3535670000 13.8372700000
269      15   4  0.05999999999999999778 23.0219120000 42.1741390000 13.6685270000
270      15   4  0.14999999999999999445 21.2069190000 39.6873060000 10.6378920000
271      16   1 -0.11999999999999999556  5.8752770000  8.2256500000 15.4976560000
272      16   1 -0.11999999999999999556  6.9979470000  6.5625190000 14.5525470000
273      16   2 -0.40000000000000002220  7.2264350000  7.5016120000 18.0285490000
274      16   3 -0.11999999999999999556  6.5694510000  8.9934340000 19.7840200000
275      16   3  0.14000000000000001332  6.9920050000  8.8865800000 18.3256470000
276      16   3  0.14000000000000001332  7.6686440000  7.2226500000 16.7194990000
277      16   3 -0.17999999999999999334  5.2384560000  8.2902830000 20.0779180000
278      16   3  0.08999999999999999667  6.5082410000  7.0269240000 15.7536020000
279      16   4  0.02999999999999999889  7.9195110000  9.4530610000 18.1449190000
280      16   4  0.02999999999999999889  6.2119410000  9.2893890000 17.6653270000
281      16   4  0.05999999999999999778  7.3661770000  8.5735220000 20.4123270000
282      16   4  0.05999999999999999778  6.4946740000 10.0612150000 20.0320870000
283      16   4  0.02999999999999999889  8.2297320000  6.2827350000 16.7580530000
284      16   4  0.02999999999999999889  8.3268270000  8.0100910000 16.3218680000
285      16   4  0.05999999999999999778  5.3080830000  7.2203030000 19.8564910000
286      16   4  0.05999999999999999778  4.9575740000  8.4027700000 21.1315850000
287      16   4  0.05999999999999999778  4.4289880000  8.7106950000 19.4662970000
288      16   4  0.14999999999999999445  5.7508570000  6.3253580000 16.1157570000
289      17   1 -0.11999999999999999556 33.5466500000 52.5428220000 50.8728610000
290      17   1 -0.11999999999999999556 35.0845130000 53.8661770000 51.7691490000
291      17   2 -0.40000000000000002220 34.4343210000 53.5466980000 48.2347640000
292      17   3 -0.11999999999999999556 33.2032820000 52.4817930000 46.4771060000
293      17   3  0.14000000000000001332 33.9324810000 52.2747260000 47.7970350000
294      17   3  0.14000000000000001332 35.1778220000 53.5322670000 49.4322520000
295      17   3 -0.17999999999999999334 31.9648450000 53.3770750000 46.6078360000
296      17   3  0.08999999999999999667 34.2891330000 53.6856290000 50.6588380000
297      17   4  0.02999999999999999889 34.7786740000 51.5804630000 47.6713900000
298      17   4  0.02999999999999999889 33.2550420000 51.8538860000 48.5525130000
299      17   4  0.05999999999999999778 33.9061350000 52.9116390000 45.7510900000
300      17   4  0.05999999999999999778 32.9147350000 51.4921520000 46.0967960000
301      17   4  0.02999999999999999889 35.8564330000 54.3916290000 49.4052820000
302      17   4  0.02999999999999999889 35.7751930000 52.6147120000 49.5445860000
303      17   4  0.05999999999999999778 32.2431930000 54.3742520000 46.9640580000
304      17   4  0.05999999999999999778 31.4561410000 53.4893590000 45.6432770000
305      17   4  0.05999999999999999778 31.2461240000 52.9512280000 47.3206900000
306      17   4  0.14999999999999999445 33.5901420000 54.5245340000 50.5907940000
307      18   1 -0.11999999999999999556 43.8940370000 31.6361970000 14.2175400000
308      18   1 -0.11999999999999999556 45.9623640000 31.4915180000 15.0053930000
309      18   2 -0.40000000000000002220 44.1547980000 28.7961720000 13.4291620000
310      18   3 -0.11999999999999999556 42.1208260000 28.0141590000 12.4340460000
311      18   3  0.14000000000000001332 42.7263390000 28.8256140000 13.5705830000
312      18   3  0.14000000000000001332 44.8831090000 29.4701970000 14.4302780000
313      18   3 -0.17999999999999999334 42.3984610000 28.6156960000 11.0507830000
314      18   3  0.08999999999999999667 45.0809560000 30.9430700000 14.0996670000
315      18   4  0.02999999999999999889 42.4546880000 28.3938060000 14.5470950000
316      18   4  0.02999999999999999889 42.3637530000 29.8622200000 13.5430620000
317      18   4  0.05999999999999999778 42.5121170000 26.9894670000 12.4866490000
318      18   4  0.05999999999999999778 41.0376730000 27.9530890000 12.6082160000
319      18   4  0.02999999999999999889 45.8739500000 29.0061050000 14.4812400000
320      18   4  0.02999999999999999889 44.4067230000 29.3938140000 15.4195210000
321      18   4  0.05999999999999999778 43.4749970000 28.6599620000 10.8562450000
322      18   4  0.05999999999999999778 41.9334720000 28.0159410000 10.2596820000
323      18   4  0.05999999999999999778 41.9991600000 29.6362370000 10.9792170000
324      18   4  0.14999999999999999445 45.4651950000 31.1173050000 13.0902200000
325      19   1 -0.11999999999999999556 38.5107740000 32.1113420000 39.2515540000
326      19   1 -0.11999999999999999556 38.9340440000 33.6946340000 40.7460950000
327      19   2 -0.40000000000000002220 36.6345310000 34.0166230000 37.9847080000
328      19   3 -0.11999999999999999556 35.6503610000 33.0456800000 36.0283030000
329      19   3  0.14000000000000001332 36.9383780000 33.2405820000 36.8156060000