Generated by pymatgen.io.lammps.data.LammpsData

17762  atoms
17016  bonds
31220  angles
35232  dihedrals

   16  atom types
   15  bond types
   25  angle types
   22  dihedral types

-0.2500000000 60.2500000000  xlo xhi
-0.2500000000 60.2500000000  ylo yhi
-0.2500000000 60.2500000000  zlo zhi

Masses

1   32.06500
2   15.99940
3   12.01070
4    1.00794
5   14.01000
6   32.06000
7   16.00000
8   12.01000
9   19.00000
10  16.00000
11  12.01000
12  12.01000
13   1.00800
14  32.06000
15  32.06000
16   6.94100

Pair Coeffs

1     0.2500  3.550000
2     0.1700  2.960000
3     0.0660  3.500000
4     0.0300  2.500000
5       0.17  3.249999
6       0.25  3.549340
7       0.21  2.959566
8      0.066  3.499450
9      0.053  2.948875
10      0.14  2.900000
11     0.066  3.500000
12     0.066  3.500000
13      0.03  2.500000
14  0.344001  3.590322
15  0.344001  3.590322
16  0.165057  1.506000

Bond Coeffs

1   735.00  1.471
2   205.00  1.840
3   268.00  1.529
4   340.00  1.090
5   441.80  1.323
6   235.40  1.818
7   637.10  1.442
8   372.00  1.570
9   320.00  1.410
10  320.00  1.380
11  268.00  1.529
12  340.00  1.090
13  340.00  1.090
14  157.87  2.133
15  154.36  2.117


Angle Coeffs

1   115.00  120.172
2   100.00  108.550
3    85.00  101.443
4    75.00  110.515
5    45.00  108.398
6    58.35  112.700
7    37.50  110.700
8    33.00  107.800
9    93.30  107.100
10   82.90  111.800
11  104.00  102.600
12  115.80  118.500
13   94.30  113.600
14   97.50  100.200
15   80.20  125.600
16   60.00  109.500
17   50.00  109.500
18   35.00  109.500
19   37.50  110.700
20   33.00  107.800
21   92.60  111.550
22   35.00  109.500
23   33.00  109.500
24   73.56  112.740
25   73.56  112.740


Dihedral Coeffs

1 3 -0.829000000 1 0.000000000 0.817000000 2 180.000000000 -0.104000000 3 0.000000000
2 1 0.260000000 3 0.000000000
3 3 -0.277000000 1 0.000000000 0.984500000 2 180.000000000 0.608500000 3 0.000000000
4 1 -0.139000000 3 0.000000000
5 1 0.150000000 3 0.000000000
6 1 0.150000000 3 0.000000000
7 1 0.150000000 3 0.000000000
8 1 0.173400000 3 0.000000000
9 1 0.158000000 3 0.000000000
10 1 -0.001800000 3 0.000000000
11 3 3.916460000 1 0.000000000 -1.245000000 2 180.000000000 -0.381800000 3 0.000000000
12 3 0.062500000 1 0.000000000 -0.011000000 2 180.000000000 0.280500000 3 0.000000000
13 3 0.062500000 1 0.000000000 -0.011000000 2 180.000000000 0.280500000 3 0.000000000
14 1 0.370500000 3 0.000000000
15 1 0.370500000 3 0.000000000
16 3 -0.533500000 1 0.000000000 -0.783500000 2 180.000000000 0.337500000 3 0.000000000
17 1 0.370500000 3 0.000000000
18 3 1.119000000 1 0.000000000 -1.163500000 2 180.000000000 -0.341500000 3 0.000000000
19 1 0.234000000 3 0.000000000
20 1 0.150000000 3 0.000000000
21 4 5.431700000 1 0.000000000 -3.590000000 2 180.000000000 1.055600000 3 0.000000000 0.058320000 4 180.000000000
22 4 5.431700000 1 0.000000000 -3.590000000 2 180.000000000 1.055600000 3 0.000000000 0.058320000 4 180.000000000


Atoms

1         1   1  0.94079999999999996962 54.9962490000 32.5502070000 54.9370840000
2         1   2 -0.53000000000000002665 56.4150710000 32.5310650000 54.5227740000
3         1   2 -0.53000000000000002665 54.5892800000 31.9187090000 56.2112340000
4         1   3 -0.39129999999999998117 54.0135170000 31.7875190000 53.5739160000
5         1   3 -0.43390000000000000790 54.4675730000 34.2998970000 54.9844150000
6         1   3 -0.04390000000000000152 54.5516610000 30.3694960000 53.3607290000
7         1   3 -0.04390000000000000152 52.5179050000 31.8136530000 53.8922080000
8         1   3 -0.04390000000000000152 55.3202430000 35.0700690000 55.9938870000
9         1   4  0.17869999999999999774 54.2455960000 32.4119740000 52.7022660000
10        1   4  0.17869999999999999774 54.5867360000 34.6866710000 53.9669500000
11        1   4  0.17869999999999999774 53.4089120000 34.3044930000 55.2575410000
12        1   4  0.05999999999999999778 54.3707600000 29.7512740000 54.2469340000
13        1   4  0.05999999999999999778 54.0313950000 29.9148000000 52.5108780000
14        1   4  0.05999999999999999778 55.6252100000 30.3762980000 53.1522510000
15        1   4  0.05999999999999999778 52.1242940000 32.8326650000 53.9770110000
16        1   4  0.05999999999999999778 51.9702150000 31.3126190000 53.0855990000
17        1   4  0.05999999999999999778 52.3178570000 31.2848330000 54.8288870000
18        1   4  0.05999999999999999778 56.3770860000 35.0345910000 55.7170190000
19        1   4  0.05999999999999999778 54.9981470000 36.1166770000 56.0166420000
20        1   4  0.05999999999999999778 55.2069770000 34.6500320000 56.9981330000
21        2   1  0.94079999999999996962 20.1187880000 30.0157800000 20.8784340000
22        2   2 -0.53000000000000002665 21.0137620000 29.9653560000 19.7030380000
23        2   2 -0.53000000000000002665 18.9289810000 30.8944440000 20.8648820000
24        2   3 -0.39129999999999998117 21.1526110000 30.4648140000 22.3396870000
25        2   3 -0.43390000000000000790 19.5512140000 28.3082220000 21.2028680000
26        2   3 -0.04390000000000000152 21.8118260000 31.8135200000 22.0359360000
27        2   3 -0.04390000000000000152 20.3161590000 30.4874050000 23.6197990000
28        2   3 -0.04390000000000000152 18.7917150000 27.7763990000 19.9864930000
29        2   4  0.17869999999999999774 21.9131600000 29.6749640000 22.3754540000
30        2   4  0.17869999999999999774 20.4492510000 27.7189510000 21.4157500000
31        2   4  0.17869999999999999774 18.9181370000 28.3477970000 22.0933900000
32        2   4  0.05999999999999999778 21.0553180000 32.6009420000 21.9468040000
33        2   4  0.05999999999999999778 22.4858160000 32.0742650000 22.8589900000
34        2   4  0.05999999999999999778 22.3891170000 31.7764850000 21.1078300000
35        2   4  0.05999999999999999778 19.9023660000 29.5038350000 23.8685380000
36        2   4  0.05999999999999999778 20.9495900000 30.8021570000 24.4572440000
37        2   4  0.05999999999999999778 19.4896390000 31.1977120000 23.5230270000
38        2   4  0.05999999999999999778 19.4334310000 27.7662190000 19.1016590000
39        2   4  0.05999999999999999778 18.4551630000 26.7537600000 20.1879730000
40        2   4  0.05999999999999999778 17.9142100000 28.3955080000 19.7756440000
41        3   1  0.94079999999999996962 20.7251390000 53.9013090000 19.5459750000
42        3   2 -0.53000000000000002665 21.4026950000 55.1472410000 19.9626850000
43        3   2 -0.53000000000000002665 21.2988330000 53.0744410000 18.4619830000
44        3   3 -0.39129999999999998117 18.9946290000 54.3435420000 19.0818130000
45        3   3 -0.43390000000000000790 20.5655030000 52.8467550000 21.0310960000
46        3   3 -0.04390000000000000152 19.0739260000 55.3816280000 17.9584580000
47        3   3 -0.04390000000000000152 18.1958820000 53.1006520000 18.6867480000
48        3   3 -0.04390000000000000152 21.9530410000 52.5286200000 21.5903540000
49        3   4  0.17869999999999999774 18.5890040000 54.8046110000 19.9909120000
50        3   4  0.17869999999999999774 19.9541940000 53.4084880000 21.7450900000
51        3   4  0.17869999999999999774 20.0331220000 51.9428540000 20.7230120000
52        3   4  0.05999999999999999778 19.5258620000 54.9447830000 17.0611280000
53        3   4  0.05999999999999999778 18.0607240000 55.7136150000 17.7077070000
54        3   4  0.05999999999999999778 19.6641210000 56.2518760000 18.2590500000
55        3   4  0.05999999999999999778 18.0850070000 52.3918770000 19.5149100000
56        3   4  0.05999999999999999778 17.1903480000 53.4045090000 18.3733950000
57        3   4  0.05999999999999999778 18.6796050000 52.5858760000 17.8512510000
58        3   4  0.05999999999999999778 22.4784730000 53.4451830000 21.8708270000
59        3   4  0.05999999999999999778 21.8495240000 51.8971660000 22.4792880000
60        3   4  0.05999999999999999778 22.5556720000 51.9916170000 20.8512780000
61        4   1  0.94079999999999996962 28.1652460000  3.8975370000 54.2006020000
62        4   2 -0.53000000000000002665 29.0334170000  2.7033710000 54.2735730000
63        4   2 -0.53000000000000002665 27.8646090000  4.5143690000 52.8902560000
64        4   3 -0.39129999999999998117 28.9097600000  5.1878110000 55.2899010000
65        4   3 -0.43390000000000000790 26.5760900000  3.4632750000 54.9937940000
66        4   3 -0.04390000000000000152 30.3294720000  5.4527140000 54.7799180000
67        4   3 -0.04390000000000000152 28.0446790000  6.4485840000 55.3204620000
68        4   3 -0.04390000000000000152 25.9281300000  2.2960900000 54.2474230000
69        4   4  0.17869999999999999774 28.9485580000  4.7081160000 56.2757840000
70        4   4  0.17869999999999999774 26.8086810000  3.2074750000 56.0327820000
71        4   4  0.17869999999999999774 25.9522030000  4.3607400000 54.9672410000
72        4   4  0.05999999999999999778 30.3031730000  5.8845770000 53.7733970000
73        4   4  0.05999999999999999778 30.8211090000  6.1670290000 55.4490340000
74        4   4  0.05999999999999999778 30.9219260000  4.5339250000 54.7508990000
75        4   4  0.05999999999999999778 27.0527470000  6.2670410000 55.7489700000
76        4   4  0.05999999999999999778 28.5385490000  7.2081820000 55.9374870000
77        4   4  0.05999999999999999778 27.9187140000  6.8494600000 54.3102790000
78        4   4  0.05999999999999999778 26.5761960000  1.4160100000 54.2648040000
79        4   4  0.05999999999999999778 24.9773710000  2.0416070000 54.7279940000
80        4   4  0.05999999999999999778 25.7294860000  2.5642420000 53.2051160000
81        5   1  0.94079999999999996962 51.4227770000 47.5717100000 32.3903630000
82        5   2 -0.53000000000000002665 52.5024070000 48.5623090000 32.5857850000
83        5   2 -0.53000000000000002665 50.1033230000 48.0063580000 31.8824330000
84        5   3 -0.39129999999999998117 51.1667270000 46.7101260000 34.0021300000
85        5   3 -0.43390000000000000790 52.0633260000 46.2859310000 31.2591590000
86        5   3 -0.04390000000000000152 50.8123120000 47.7789180000 35.0403540000
87        5   3 -0.04390000000000000152 50.0987240000 45.6221910000 33.8812420000
88        5   3 -0.04390000000000000152 52.4442080000 46.9191720000 29.9200630000
89        5   4  0.17869999999999999774 52.1498940000 46.2789290000 34.2280290000
90        5   4  0.17869999999999999774 52.9263780000 45.8352190000 31.7601880000
91        5   4  0.17869999999999999774 51.2725750000 45.5393020000 31.1467370000
92        5   4  0.05999999999999999778 49.8553800000 48.2524920000 34.7948100000
93        5   4  0.05999999999999999778 50.7202270000 47.3044380000 36.0232370000
94        5   4  0.05999999999999999778 51.5820780000 48.5538040000 35.0953980000
95        5   4  0.05999999999999999778 50.3877650000 44.8251710000 33.1871810000
96        5   4  0.05999999999999999778 49.9395940000 45.1642600000 34.8643970000
97        5   4  0.05999999999999999778 49.1522110000 46.0528130000 33.5410750000
98        5   4  0.05999999999999999778 53.2185560000 47.6786680000 30.0556440000
99        5   4  0.05999999999999999778 52.8269540000 46.1435110000 29.2481190000
100       5   4  0.05999999999999999778 51.5734080000 47.3868040000 29.4501730000
101       6   1  0.94079999999999996962 21.3110670000  2.6780950000 13.4822700000
102       6   2 -0.53000000000000002665 21.9320580000  1.4543540000 14.0317290000
103       6   2 -0.53000000000000002665 21.4422690000  2.9916560000 12.0427080000
104       6   3 -0.39129999999999998117 21.9642070000  4.1089110000 14.4475960000
105       6   3 -0.43390000000000000790 19.5279540000  2.6085350000 13.8807970000
106       6   3 -0.04390000000000000152 23.4889790000  4.0995890000 14.3033110000
107       6   3 -0.04390000000000000152 21.3315860000  5.4213720000 13.9827450000
108       6   3 -0.04390000000000000152 18.9032060000  1.3686530000 13.2392160000
109       6   4  0.17869999999999999774 21.6837630000  3.8768700000 15.4825290000
110       6   4  0.17869999999999999774 19.4558030000  2.5858200000 14.9731830000
111       6   4  0.17869999999999999774 19.0816830000  3.5320850000 13.5022750000
112       6   4  0.05999999999999999778 23.7787430000  4.2792450000 13.2621370000
113       6   4  0.05999999999999999778 23.9104430000  4.8994380000 14.9215990000
114       6   4  0.05999999999999999778 23.9153310000  3.1453620000 14.6253240000
115       6   4  0.05999999999999999778 20.2491980000  5.4485270000 14.1506910000
116       6   4  0.05999999999999999778 21.7751600000  6.2523050000 14.5434670000
117       6   4  0.05999999999999999778 21.5219510000  5.5803010000 12.9171280000
118       6   4  0.05999999999999999778 19.3776280000  0.4572600000 13.6122040000
119       6   4  0.05999999999999999778 17.8357910000  1.3336170000 13.4822220000
120       6   4  0.05999999999999999778 19.0106140000  1.3990730000 12.1504980000
121       7   1  0.94079999999999996962 33.6867670000  2.9634540000 45.8516000000
122       7   2 -0.53000000000000002665 33.3337750000  3.7366640000 47.0609890000
123       7   2 -0.53000000000000002665 32.6213650000  2.3522080000 45.0274820000
124       7   3 -0.39129999999999998117 34.8530270000  1.6306090000 46.3702920000
125       7   3 -0.43390000000000000790 34.6699810000  4.0632050000 44.7713270000
126       7   3 -0.04390000000000000152 34.1389800000  0.7852060000 47.4291920000
127       7   3 -0.04390000000000000152 35.3185150000  0.8078270000 45.1681280000
128       7   3 -0.04390000000000000152 33.8387470000  5.2884100000 44.3877040000
129       7   4  0.17869999999999999774 35.6884880000  2.1761070000 46.8263780000
130       7   4  0.17869999999999999774 35.5648870000  4.3362210000 45.3402160000
131       7   4  0.17869999999999999774 34.9566860000  3.4746910000 43.8956370000
132       7   4  0.05999999999999999778 33.2712390000  0.2762740000 46.9952630000
133       7   4  0.05999999999999999778 34.8321380000  0.0251640000 47.8054080000
134       7   4  0.05999999999999999778 33.8008230000  1.3984340000 48.2692030000
135       7   4  0.05999999999999999778 35.8872670000  1.4040790000 44.4459720000
136       7   4  0.05999999999999999778 35.9708670000 -0.0009430000 45.5173350000
137       7   4  0.05999999999999999778 34.4605170000  0.3647760000 44.6537520000
138       7   4  0.05999999999999999778 33.5421180000  5.8506670000 45.2769230000
139       7   4  0.05999999999999999778 34.4338660000  5.9422220000 43.7411630000
140       7   4  0.05999999999999999778 32.9365290000  4.9907480000 43.8444100000
141       8   1  0.94079999999999996962 56.0535810000 32.2301260000 30.6628850000
142       8   2 -0.53000000000000002665 55.8404020000 31.6326120000 29.3277410000
143       8   2 -0.53000000000000002665 56.6791580000 31.4314070000 31.7392550000
144       8   3 -0.39129999999999998117 54.4161680000 32.8310050000 31.2657980000
145       8   3 -0.43390000000000000790 57.0583170000 33.7396670000 30.4284810000
146       8   3 -0.04390000000000000152 53.4707820000 31.6263980000 31.2974850000
147       8   3 -0.04390000000000000152 54.5485570000 33.5181160000 32.6256510000
148       8   3 -0.04390000000000000152 58.4018440000 33.3729780000 29.7962510000
149       8   4  0.17869999999999999774 54.0956150000 33.5393650000 30.4918150000
150       8   4  0.17869999999999999774 56.4712390000 34.4055420000 29.7874040000
151       8   4  0.17869999999999999774 57.1826320000 34.1947400000 31.4148060000
152       8   4  0.05999999999999999778 53.8115220000 30.8882020000 32.0318180000
153       8   4  0.05999999999999999778 52.4706930000 31.9656830000 31.5879630000
154       8   4  0.05999999999999999778 53.4067640000 31.1424140000 30.3188750000
155       8   4  0.05999999999999999778 55.1719650000 34.4181210000 32.5825410000
156       8   4  0.05999999999999999778 53.5539590000 33.8199680000 32.9739010000
157       8   4  0.05999999999999999778 54.9802360000 32.8312730000 33.3597740000
158       8   4  0.05999999999999999778 58.2564000000 32.8986090000 28.8222630000
159       8   4  0.05999999999999999778 58.9978020000 34.2816020000 29.6588100000
160       8   4  0.05999999999999999778 58.9594680000 32.6861740000 30.4405520000
161       9   1  0.94079999999999996962 19.5751410000 31.7205890000 46.3442600000
162       9   2 -0.53000000000000002665 18.4426900000 30.7713450000 46.3838470000
163       9   2 -0.53000000000000002665 19.5666310000 32.8422060000 45.3800100000
164       9   3 -0.39129999999999998117 21.1113360000 30.7350450000 46.0713320000
165       9   3 -0.43390000000000000790 19.7526500000 32.4249420000 48.0222150000
166       9   3 -0.04390000000000000152 20.9337660000 29.9661440000 44.7586640000
167       9   3 -0.04390000000000000152 22.3489570000 31.6334550000 46.0707340000
168       9   3 -0.04390000000000000152 18.4676580000 33.1559460000 48.4142220000
169       9   4  0.17869999999999999774 21.1278870000 30.0358120000 46.9165400000
170       9   4  0.17869999999999999774 19.9661570000 31.5836730000 48.6898300000
171       9   4  0.17869999999999999774 20.6128570000 33.0992150000 47.9942260000
172       9   4  0.05999999999999999778 20.8640620000 30.6587380000 43.9126520000
173       9   4  0.05999999999999999778 21.8039090000 29.3191470000 44.6040150000
174       9   4  0.05999999999999999778 20.0336510000 29.3452930000 44.7774680000
175       9   4  0.05999999999999999778 22.5087430000 32.1289250000 47.0348320000
176       9   4  0.05999999999999999778 23.2352860000 31.0237510000 45.8602600000
177       9   4  0.05999999999999999778 22.2629600000 32.4009010000 45.2957060000
178       9   4  0.05999999999999999778 17.6155750000 32.4712650000 48.4139850000
179       9   4  0.05999999999999999778 18.5812800000 33.5748010000 49.4198570000
180       9   4  0.05999999999999999778 18.2592270000 33.9747370000 47.7185880000
181      10   1  0.94079999999999996962  1.1516370000 19.8601270000 22.8830670000
182      10   2 -0.53000000000000002665 -0.0010550000 20.6575020000 23.3527160000
183      10   2 -0.53000000000000002665  2.5302570000 20.3163810000 23.1643360000
184      10   3 -0.39129999999999998117  0.9720100000 19.6533370000 21.0580600000
185      10   3 -0.43390000000000000790  0.9659130000 18.1774450000 23.5738950000
186      10   3 -0.04390000000000000152  0.9276610000 21.0546990000 20.4415740000
187      10   3 -0.04390000000000000152  2.0979150000 18.7891900000 20.4884650000
188      10   3 -0.04390000000000000152  0.9606160000 18.2440130000 25.1018950000
189      10   4  0.17869999999999999774 -0.0024800000 19.1623730000 20.9444720000
190      10   4  0.17869999999999999774  0.0249380000 17.7822850000 23.1771060000
191      10   4  0.17869999999999999774  1.8024240000 17.5843290000 23.1946270000
192      10   4  0.05999999999999999778  1.8801950000 21.5737040000 20.5951810000
193      10   4  0.05999999999999999778  0.7537160000 20.9647170000 19.3639300000
194      10   4  0.05999999999999999778  0.1263640000 21.6581060000 20.8772790000
195      10   4  0.05999999999999999778  2.0834930000 17.7670910000 20.8829440000
196      10   4  0.05999999999999999778  1.9866060000 18.7261100000 19.3997740000
197      10   4  0.05999999999999999778  3.0716670000 19.2346060000 20.7130740000
198      10   4  0.05999999999999999778  0.1319430000 18.8596960000 25.4611550000
199      10   4  0.05999999999999999778  0.8489470000 17.2330940000 25.5083750000
200      10   4  0.05999999999999999778  1.8985360000 18.6667080000 25.4752650000
201      11   1  0.94079999999999996962 12.2323460000 56.9585020000 42.1734450000
202      11   2 -0.53000000000000002665 11.2881600000 56.2413300000 43.0561990000
203      11   2 -0.53000000000000002665 11.7208900000 57.7727030000 41.0494520000
204      11   3 -0.39129999999999998117 13.4090890000 55.7096280000 41.4942750000
205      11   3 -0.43390000000000000790 13.2504380000 58.0446990000 43.2349630000
206      11   3 -0.04390000000000000152 12.5804380000 54.6585070000 40.7497480000
207      11   3 -0.04390000000000000152 14.4636430000 56.3723740000 40.6068460000
208      11   3 -0.04390000000000000152 12.3513120000 59.0437180000 43.9648770000
209      11   4  0.17869999999999999774 13.8639940000 55.2647810000 42.3880040000
210      11   4  0.17869999999999999774 13.7824100000 57.3871340000 43.9304080000
211      11   4  0.17869999999999999774 13.9689120000 58.5454910000 42.5804520000
212      11   4  0.05999999999999999778 12.0796790000 55.1050790000 39.8836670000
213      11   4  0.05999999999999999778 13.2473200000 53.8666110000 40.3922030000
214      11   4  0.05999999999999999778 11.8228460000 54.2123400000 41.4001370000
215      11   4  0.05999999999999999778 15.0976610000 57.0738920000 41.1603800000
216      11   4  0.05999999999999999778 15.1152950000 55.5987110000 40.1844580000
217      11   4  0.05999999999999999778 13.9854050000 56.9114810000 39.7836270000
218      11   4  0.05999999999999999778 11.6252090000 58.5243000000 44.5956000000
219      11   4  0.05999999999999999778 12.9676800000 59.6904560000 44.5984960000
220      11   4  0.05999999999999999778 11.8092620000 59.6716970000 43.2510190000
221      12   1  0.94079999999999996962 37.6709770000 48.4050960000 20.6977430000
222      12   2 -0.53000000000000002665 37.2941740000 49.3026160000 21.8101980000
223      12   2 -0.53000000000000002665 37.6867610000 48.9146910000 19.3092410000
224      12   3 -0.39129999999999998117 36.5471570000 46.9428100000 20.7642840000
225      12   3 -0.43390000000000000790 39.3345670000 47.7450030000 21.0717740000
226      12   3 -0.04390000000000000152 35.1116890000 47.4640360000 20.6476960000
227      12   3 -0.04390000000000000152 36.9004210000 45.9270540000 19.6769510000
228      12   3 -0.04390000000000000152 40.3350860000 48.8967650000 21.1797150000
229      12   4  0.17869999999999999774 36.7156090000 46.5280260000 21.7658610000
230      12   4  0.17869999999999999774 39.2433970000 47.1911700000 22.0119790000
231      12   4  0.17869999999999999774 39.5920180000 47.0558730000 20.2629480000
232      12   4  0.05999999999999999778 34.9481510000 47.9272730000 19.6684380000
233      12   4  0.05999999999999999778 34.4175740000 46.6231780000 20.7517750000
234      12   4  0.05999999999999999778 34.8894320000 48.2008850000 21.4246590000
235      12   4  0.05999999999999999778 37.9044150000 45.5072720000 19.8045660000
236      12   4  0.05999999999999999778 36.1862300000 45.0963660000 19.7157410000
237      12   4  0.05999999999999999778 36.8408470000 46.3907550000 18.6877750000
238      12   4  0.05999999999999999778 40.0485330000 49.5869390000 21.9774490000
239      12   4  0.05999999999999999778 41.3286520000 48.4940050000 21.4039080000
240      12   4  0.05999999999999999778 40.3900500000 49.4526710000 20.2385900000
241      13   1  0.94079999999999996962 27.5235920000  6.9519720000 30.4910940000
242      13   2 -0.53000000000000002665 28.2597880000  8.1286440000 29.9826300000
243      13   2 -0.53000000000000002665 26.1800210000  6.6341650000 29.9603510000
244      13   3 -0.39129999999999998117 27.3938460000  7.1322220000 32.3231310000
245      13   3 -0.43390000000000000790 28.5898100000  5.4896480000 30.2304430000
246      13   3 -0.04390000000000000152 26.6699180000  8.4527790000 32.6022260000
247      13   3 -0.04390000000000000152 26.6903410000  5.9258760000 32.9465540000
248      13   3 -0.04390000000000000152 28.8816870000  5.3224780000 28.7384300000
249      13   4  0.17869999999999999774 28.4375180000  7.1990580000 32.6545840000
250      13   4  0.17869999999999999774 29.5022240000  5.6648520000 30.8099540000
251      13   4  0.17869999999999999774 28.0541110000  4.6289900000 30.6399260000
252      13   4  0.05999999999999999778 25.6409070000  8.4148120000 32.2280920000
253      13   4  0.05999999999999999778 26.6376240000  8.6198370000 33.6842230000
254      13   4  0.05999999999999999778 27.1821480000  9.2968250000 32.1318810000
255      13   4  0.05999999999999999778 27.2474430000  4.9936100000 32.8015500000
256      13   4  0.05999999999999999778 26.5892600000  6.0873530000 34.0260560000
257      13   4  0.05999999999999999778 25.6909900000  5.8036530000 32.5183070000
258      13   4  0.05999999999999999778 29.3962190000  6.2017490000 28.3422330000
259      13   4  0.05999999999999999778 29.5205490000  4.4452600000 28.5901170000
260      13   4  0.05999999999999999778 27.9545950000  5.1759620000 28.1755780000
261      14   1  0.94079999999999996962 24.5043210000 33.3446530000 10.9730800000
262      14   2 -0.53000000000000002665 23.4822320000 33.4883960000 12.0312620000
263      14   2 -0.53000000000000002665 24.0959200000 33.2944230000  9.5523200000
264      14   3 -0.39129999999999998117 25.4770450000 31.8221730000 11.3492990000
265      14   3 -0.43390000000000000790 25.6864700000 34.7258060000 11.1682560000
266      14   3 -0.04390000000000000152 24.4928970000 30.6492550000 11.3887180000
267      14   3 -0.04390000000000000152 26.6004200000 31.6210260000 10.3312530000
268      14   3 -0.04390000000000000152 24.9533450000 36.0591110000 11.0131190000
269      14   4  0.17869999999999999774 25.8786540000 32.0089690000 12.3529900000
270      14   4  0.17869999999999999774 26.1302620000 34.6148650000 12.1631270000
271      14   4  0.17869999999999999774 26.4580550000 34.5936700000 10.4049870000
272      14   4  0.05999999999999999778 24.0466480000 30.4871650000 10.4013630000
273      14   4  0.05999999999999999778 25.0325230000 29.7406780000 11.6767480000
274      14   4  0.05999999999999999778 23.6903990000 30.8246410000 12.1106970000
275      14   4  0.05999999999999999778 27.3383470000 32.4306090000 10.3546420000
276      14   4  0.05999999999999999778 27.1264740000 30.6861600000 10.5568830000
277      14   4  0.05999999999999999778 26.1905190000 31.5536470000  9.3190880000
278      14   4  0.05999999999999999778 24.1711170000 36.1627670000 11.7695630000
279      14   4  0.05999999999999999778 25.6673160000 36.8812550000 11.1313460000
280      14   4  0.05999999999999999778 24.4950010000 36.1370770000 10.0223560000
281      15   1  0.94079999999999996962 34.8240560000 39.5299570000 10.6823800000
282      15   2 -0.53000000000000002665 36.0431340000 40.3645300000 10.7315330000
283      15   2 -0.53000000000000002665 34.7883580000 38.3224540000  9.8288370000
284      15   3 -0.39129999999999998117 33.4241630000 40.6272880000 10.1906030000
285      15   3 -0.43390000000000000790 34.4476360000 39.0164470000 12.3963720000
286      15   3 -0.04390000000000000152 33.7797570000 41.2410470000  8.8331460000
287      15   3 -0.04390000000000000152 32.1031490000 39.8570990000 10.1665230000
288      15   3 -0.04390000000000000152 35.6159810000 38.2073160000 12.9616310000
289      15   4  0.17869999999999999774 33.4168090000 41.4054260000 10.9639240000
290      15   4  0.17869999999999999774 34.2732210000 39.9366200000 12.9637270000
291      15   4  0.17869999999999999774 33.5263520000 38.4290340000 12.3568290000
292      15   4  0.05999999999999999778 33.8405750000 40.4642670000  8.0629540000
293      15   4  0.05999999999999999778 32.9960860000 41.9505000000  8.5464300000
294      15   4  0.05999999999999999778 34.7357370000 41.7707850000  8.8718570000
295      15   4  0.05999999999999999778 31.8200850000 39.4777440000 11.1546890000
296      15   4  0.05999999999999999778 31.3037570000 40.5256320000  9.8264460000
297      15   4  0.05999999999999999778 32.1669450000 39.0116760000  9.4749840000
298      15   4  0.05999999999999999778 36.5324300000 38.8030150000 12.9715260000
299      15   4  0.05999999999999999778 35.3835500000 37.9035040000 13.9879480000
300      15   4  0.05999999999999999778 35.7898280000 37.3071080000 12.3639920000
301      16   1  0.94079999999999996962 19.0483520000 28.1832260000 11.8800730000
302      16   2 -0.53000000000000002665 18.5307300000 28.5396530000 13.2180210000
303      16   2 -0.53000000000000002665 19.2019890000 29.2277990000 10.8441510000
304      16   3 -0.39129999999999998117 17.9608520000 26.8541860000 11.2042940000
305      16   3 -0.43390000000000000790 20.6775010000 27.3890630000 12.1215970000
306      16   3 -0.04390000000000000152 16.5339380000 27.4090860000 11.1614040000
307      16   3 -0.04390000000000000152 18.4553120000 26.3804670000  9.8368330000
308      16   3 -0.04390000000000000152 21.6312930000 28.3659510000 12.8109550000
309      16   4  0.17869999999999999774 18.0299270000 26.0537360000 11.9513450000
310      16   4  0.17869999999999999774 20.4987050000 26.4941470000 12.7267300000
311      16   4  0.17869999999999999774 21.0383540000 27.0971060000 11.1316840000
312      16   4  0.05999999999999999778 16.4661140000 28.2440310000 10.4553230000
313      16   4  0.05999999999999999778 15.8538630000 26.6183390000 10.8269080000
314      16   4  0.05999999999999999778 16.2103260000 27.7569040000 12.1464500000
315      16   4  0.05999999999999999778 19.4497040000 25.9229160000  9.8851900000
316      16   4  0.05999999999999999778 17.7621170000 25.6268000000  9.4455750000
317      16   4  0.05999999999999999778 18.4918690000 27.2176020000  9.1333380000
318      16   4  0.05999999999999999778 21.2426970000 28.6641770000 13.7881380000
319      16   4  0.05999999999999999778 22.6044150000 27.8835700000 12.9523550000
320      16   4  0.05999999999999999778 21.7741560000 29.2639670000 12.2019170000
321      17   1  0.94079999999999996962 22.1877210000 40.8381590000  9.3163170000
322      17   2 -0.53000000000000002665 21.5934140000 39.6285570000  9.9235560000
323      17   2 -0.53000000000000002665 22.9478240000 40.7336430000  8.0517250000
324      17   3 -0.39129999999999998117 23.2809510000 41.6120630000 10.5858060000
325      17   3 -0.43390000000000000790 20.8327800000 42.0385250000  9.0586150000
326      17   3 -0.04390000000000000152 24.3300590000 40.5690500000 10.9824580000
327      17   3 -0.04390000000000000152 23.9006200000 42.9084640000 10.0621600000
328      17   3 -0.04390000000000000152 19.7841550000 41.4401770000  8.1196760000
329      17   4  0.17869999999999999774 22.6068190000 41.8058590000 11.4293500000