Generated by pymatgen.io.lammps.data.LammpsData

16994  atoms
16386  bonds
29987  angles
33504  dihedrals
  249  impropers

   18  atom types
   18  bond types
   30  angle types
   27  dihedral types
    1  improper types

-0.2500000000 60.2500000000  xlo xhi
-0.2500000000 60.2500000000  ylo yhi
-0.2500000000 60.2500000000  zlo zhi

Masses

1   32.065000
2   18.998403
3   15.999400
4   14.006700
5   12.010700
6    1.007940
7   14.010000
8   32.060000
9   16.000000
10  12.010000
11  19.000000
12  16.000000
13  12.010000
14  12.010000
15   1.008000
16  32.060000
17  32.060000
18   6.941000

Pair Coeffs

1     0.2500  3.550000
2     0.0610  2.940000
3     0.1700  2.960000
4     0.1700  3.250000
5     0.0660  3.500000
6     0.0300  2.500000
7       0.17  3.249999
8       0.25  3.549340
9       0.21  2.959566
10     0.066  3.499450
11     0.053  2.948875
12      0.14  2.900000
13     0.066  3.500000
14     0.066  3.500000
15      0.03  2.500000
16  0.344001  3.590322
17  0.344001  3.590322
18  0.165057  1.506000

Bond Coeffs

1   735.00  1.471
2   245.00  1.722
3   205.00  1.840
4   367.00  1.332
5   300.00  1.458
6   268.00  1.529
7   340.00  1.090
8   441.80  1.323
9   235.40  1.818
10  637.10  1.442
11  372.00  1.570
12  320.00  1.410
13  320.00  1.380
14  268.00  1.529
15  340.00  1.090
16  340.00  1.090
17  157.87  2.133
18  154.36  2.117


Angle Coeffs

1   115.00  120.172
2   115.00  107.225
3   100.00  108.550
4    95.00  102.068
5    75.00  117.082
6    75.00  112.870
7    80.00  110.210
8    50.00  109.350
9    37.50  110.700
10   33.00  107.800
11   58.35  112.700
12   90.00  108.100
13   77.00  109.100
14   93.30  107.100
15   82.90  111.800
16  104.00  102.600
17  115.80  118.500
18   94.30  113.600
19   97.50  100.200
20   80.20  125.600
21   60.00  109.500
22   50.00  109.500
23   35.00  109.500
24   37.50  110.700
25   33.00  107.800
26   92.60  111.550
27   35.00  109.500
28   33.00  109.500
29   73.56  112.740
30   73.56  112.740


Dihedral Coeffs

1 3 -0.304000000 1 0.000000000 0.504500000 2 180.000000000 0.655500000 3 0.000000000
2 2 -0.701500000 2 180.000000000 0.020000000 3 0.000000000
3 3 -0.674000000 1 0.000000000 0.689500000 2 180.000000000 -0.115500000 3 0.000000000
4 2 0.854000000 1 0.000000000 0.189500000 2 180.000000000
5 3 -0.715000000 1 0.000000000 -0.424000000 2 180.000000000 0.185000000 3 0.000000000
6 1 0.150000000 3 0.000000000
7 2 -0.950500000 1 0.000000000 0.536500000 2 180.000000000
8 1 0.150000000 3 0.000000000
9 3 1.181000000 1 0.000000000 -0.237500000 2 180.000000000 0.343000000 3 0.000000000
10 1 0.150000000 3 0.000000000
11 1 0.150000000 3 0.000000000
12 1 0.150000000 3 0.000000000
13 1 0.173400000 3 0.000000000
14 1 0.158000000 3 0.000000000
15 1 -0.001800000 3 0.000000000
16 3 3.916460000 1 0.000000000 -1.245000000 2 180.000000000 -0.381800000 3 0.000000000
17 3 0.062500000 1 0.000000000 -0.011000000 2 180.000000000 0.280500000 3 0.000000000
18 3 0.062500000 1 0.000000000 -0.011000000 2 180.000000000 0.280500000 3 0.000000000
19 1 0.370500000 3 0.000000000
20 1 0.370500000 3 0.000000000
21 3 -0.533500000 1 0.000000000 -0.783500000 2 180.000000000 0.337500000 3 0.000000000
22 1 0.370500000 3 0.000000000
23 3 1.119000000 1 0.000000000 -1.163500000 2 180.000000000 -0.341500000 3 0.000000000
24 1 0.234000000 3 0.000000000
25 1 0.150000000 3 0.000000000
26 4 5.431700000 1 0.000000000 -3.590000000 2 180.000000000 1.055600000 3 0.000000000 0.058320000 4 180.000000000
27 4 5.431700000 1 0.000000000 -3.590000000 2 180.000000000 1.055600000 3 0.000000000 0.058320000 4 180.000000000


Improper Coeffs

1 1.000000000 -1 2


Atoms

1         1   1  1.60210000000000007958 43.8280540000  3.8632560000 50.5277490000
2         1   2 -0.01499999999999999944 44.6565420000  3.5167430000 53.0458760000
3         1   2 -0.01499999999999999944 43.9719870000  5.5420330000 52.6248350000
4         1   2 -0.01499999999999999944 42.5214270000  3.9318010000 52.8464440000
5         1   3 -0.64549999999999996270 43.4839320000  2.4438450000 50.4695210000
6         1   3 -0.64549999999999996270 43.0336270000  4.9103630000 49.8909580000
7         1   4 -0.56599999999999994760 45.4054750000  4.0616240000 50.1247040000
8         1   5  0.05879999999999999810 46.3495550000  2.9332250000 50.3282790000
9         1   5  0.05879999999999999810 45.8654050000  5.3280090000 49.5012590000
10        1   5 -0.08329999999999999905 46.3610830000  1.9087680000 49.1887010000
11        1   5 -0.08329999999999999905 46.1509640000  6.4612930000 50.4904180000
12        1   5 -0.18429999999999999161 43.7354050000  4.2436620000 52.3827540000
13        1   5 -0.17999999999999999334 46.6923610000  2.4954110000 47.8130720000
14        1   5 -0.17999999999999999334 47.1711900000  6.0960060000 51.5728210000
15        1   6  0.07330000000000000404 47.3351730000  3.3919750000 50.4538700000
16        1   6  0.07330000000000000404 46.1073690000  2.4390740000 51.2732650000
17        1   6  0.07330000000000000404 46.7740760000  5.0634670000 48.9536860000
18        1   6  0.07330000000000000404 45.1222790000  5.6427340000 48.7627060000
19        1   6  0.05999999999999999778 47.1023330000  1.1416120000 49.4554100000
20        1   6  0.05999999999999999778 45.3856200000  1.4116340000 49.1593670000
21        1   6  0.05999999999999999778 46.5147660000  7.3165950000 49.9039980000
22        1   6  0.05999999999999999778 45.2102310000  6.7795330000 50.9507130000
23        1   6  0.05999999999999999778 47.6702270000  2.9935460000 47.8104810000
24        1   6  0.05999999999999999778 46.7198650000  1.7070950000 47.0528000000
25        1   6  0.05999999999999999778 45.9368130000  3.2250980000 47.5015450000
26        1   6  0.05999999999999999778 48.1364020000  5.8135900000 51.1323110000
27        1   6  0.05999999999999999778 47.3466620000  6.9418330000 52.2459630000
28        1   6  0.05999999999999999778 46.8201730000  5.2563400000 52.1825880000
29        2   1  1.60210000000000007958 12.1428410000 22.4666760000 47.1276220000
30        2   2 -0.01499999999999999944 12.8895050000 21.2839860000 44.8492090000
31        2   2 -0.01499999999999999944 13.8340900000 20.4370290000 46.6206810000
32        2   2 -0.01499999999999999944 11.7413310000 20.0048090000 46.1968610000
33        2   3 -0.64549999999999996270 10.8719010000 22.8230620000 46.4997390000
34        2   3 -0.64549999999999996270 12.2645070000 22.0667290000 48.5270110000
35        2   4 -0.56599999999999994760 13.2601580000 23.6208600000 46.7966880000
36        2   5  0.05879999999999999810 13.1011030000 24.4496380000 45.5744610000
37        2   5  0.05879999999999999810 14.3747160000 23.8772520000 47.7432480000
38        2   5 -0.08329999999999999905 12.1599000000 25.6470050000 45.7439590000
39        2   5 -0.08329999999999999905 15.5650300000 22.9244370000 47.6032090000
40        2   5 -0.18429999999999999161 12.6895980000 20.9446800000 46.1382170000
41        2   5 -0.17999999999999999334 12.5603630000 26.6139700000 46.8623770000
42        2   5 -0.17999999999999999334 16.1685600000 22.8902610000 46.1959160000
43        2   6  0.07330000000000000404 14.1102190000 24.7781560000 45.3072000000
44        2   6  0.07330000000000000404 12.7500110000 23.8100480000 44.7599090000
45        2   6  0.07330000000000000404 14.6864280000 24.9064760000 47.5456790000
46        2   6  0.07330000000000000404 13.9794100000 23.8486550000 48.7628870000
47        2   6  0.05999999999999999778 12.1405420000 26.1777580000 44.7811290000
48        2   6  0.05999999999999999778 11.1467850000 25.2696810000 45.9193290000
49        2   6  0.05999999999999999778 16.3234730000 23.2475770000 48.3299320000
50        2   6  0.05999999999999999778 15.2555490000 21.9189590000 47.9054690000
51        2   6  0.05999999999999999778 13.5700930000 27.0152090000 46.7080470000
52        2   6  0.05999999999999999778 11.8692890000 27.4629490000 46.9055810000
53        2   6  0.05999999999999999778 12.5349840000 26.1205010000 47.8402270000
54        2   6  0.05999999999999999778 16.5238530000 23.8830300000 45.8899470000
55        2   6  0.05999999999999999778 17.0203710000 22.2033360000 46.1525050000
56        2   6  0.05999999999999999778 15.4341320000 22.5522950000 45.4566850000
57        3   1  1.60210000000000007958 41.4423740000 50.0149000000 32.6211810000
58        3   2 -0.01499999999999999944 39.5449240000 51.8525880000 32.2088550000
59        3   2 -0.01499999999999999944 40.7177460000 52.2006610000 34.0119140000
60        3   2 -0.01499999999999999944 41.5869240000 52.6128620000 32.0572530000
61        3   3 -0.64549999999999996270 41.4988710000 49.7824070000 31.1792060000
62        3   3 -0.64549999999999996270 42.6193060000 49.9959270000 33.4857730000
63        3   4 -0.56599999999999994760 40.2714640000 49.0756880000 33.2821690000
64        3   5  0.05879999999999999810 39.1374120000 48.6313790000 32.4321530000
65        3   5  0.05879999999999999810 40.3827500000 48.6209700000 34.6909980000
66        3   5 -0.08329999999999999905 39.4309190000 47.3830410000 31.5932330000
67        3   5 -0.08329999999999999905 39.9150280000 49.6420030000 35.7316900000
68        3   5 -0.18429999999999999161 40.7834940000 51.7888480000 32.7365990000
69        3   5 -0.17999999999999999334 39.8549370000 46.1575040000 32.4084140000
70        3   5 -0.17999999999999999334 38.4747910000 50.1207190000 35.5256880000
71        3   6  0.07330000000000000404 38.3043720000 48.4554640000 33.1197340000
72        3   6  0.07330000000000000404 38.8415480000 49.4586950000 31.7811160000
73        3   6  0.07330000000000000404 39.7740780000 47.7144330000 34.7476500000
74        3   6  0.07330000000000000404 41.4192560000 48.3275520000 34.8815490000
75        3   6  0.05999999999999999778 38.5163800000 47.1559070000 31.0265380000
76        3   6  0.05999999999999999778 40.2055180000 47.6321080000 30.8600950000
77        3   6  0.05999999999999999778 40.0159550000 49.1665540000 36.7173590000
78        3   6  0.05999999999999999778 40.6003730000 50.4954770000 35.7282800000
79        3   6  0.05999999999999999778 39.0924090000 45.8792710000 33.1469970000
80        3   6  0.05999999999999999778 40.0133120000 45.2934230000 31.7538190000
81        3   6  0.05999999999999999778 40.7945140000 46.3420120000 32.9408580000
82        3   6  0.05999999999999999778 37.7661220000 49.2831740000 35.5675200000
83        3   6  0.05999999999999999778 38.1873170000 50.8396700000 36.3001550000
84        3   6  0.05999999999999999778 38.3553910000 50.6153930000 34.5555800000
85        4   1  1.60210000000000007958 22.1383860000 30.5063510000 17.3993190000
86        4   2 -0.01499999999999999944 23.3736130000 28.2313200000 18.0670610000
87        4   2 -0.01499999999999999944 21.9314020000 27.9976100000 16.4505530000
88        4   2 -0.01499999999999999944 23.8464140000 28.9614720000 16.0635390000
89        4   3 -0.64549999999999996270 23.3056070000 31.2511510000 17.8677270000
90        4   3 -0.64549999999999996270 21.3555860000 30.8911320000 16.2279020000
91        4   4 -0.56599999999999994760 21.1248980000 30.2274940000 18.6583390000
92        4   5  0.05879999999999999810 21.6786790000 30.1915400000 20.0360350000
93        4   5  0.05879999999999999810 19.6656340000 30.0827290000 18.4269480000
94        4   5 -0.08329999999999999905 21.8373050000 31.5697930000 20.6868330000
95        4   5 -0.08329999999999999905 19.2239100000 28.6859710000 17.9816820000
96        4   5 -0.18429999999999999161 22.8675550000 28.8120750000 16.9610490000
97        4   5 -0.17999999999999999334 20.5419180000 32.3827930000 20.7720000000
98        4   5 -0.17999999999999999334 19.6400950000 27.5690080000 18.9434890000
99        4   6  0.07330000000000000404 20.9946410000 29.5613510000 20.6127700000
100       4   6  0.07330000000000000404 22.6423600000 29.6751550000 20.0136040000
101       4   6  0.07330000000000000404 19.1978550000 30.3434250000 19.3802170000
102       4   6  0.07330000000000000404 19.3524920000 30.8342820000 17.6962920000
103       4   6  0.05999999999999999778 22.2398840000 31.4026820000 21.6963470000
104       4   6  0.05999999999999999778 22.5961720000 32.1306070000 20.1308310000
105       4   6  0.05999999999999999778 18.1295040000 28.7100610000 17.8843340000
106       4   6  0.05999999999999999778 19.6192790000 28.4883020000 16.9803150000
107       4   6  0.05999999999999999778 19.7645570000 31.8477890000 21.3322210000
108       4   6  0.05999999999999999778 20.7174540000 33.3382030000 21.2785500000
109       4   6  0.05999999999999999778 20.1496020000 32.6080050000 19.7741460000
110       4   6  0.05999999999999999778 19.2183250000 27.7269650000 19.9447890000
111       4   6  0.05999999999999999778 19.2918670000 26.5945670000 18.5849700000
112       4   6  0.05999999999999999778 20.7298270000 27.5144070000 19.0413250000
113       5   1  1.60210000000000007958 37.1694890000 26.8698670000 10.0363880000
114       5   2 -0.01499999999999999944 34.7020770000 25.9306030000  9.6155630000
115       5   2 -0.01499999999999999944 35.8421890000 24.7670260000 11.0626020000
116       5   2 -0.01499999999999999944 35.0401750000 26.7124020000 11.6268420000
117       5   3 -0.64549999999999996270 36.6984220000 28.2054340000  9.6745960000
118       5   3 -0.64549999999999996270 38.1481740000 26.6204580000 11.0913850000
119       5   4 -0.56599999999999994760 37.6178550000 26.0613390000  8.6816540000
120       5   5  0.05879999999999999810 37.0116380000 26.4421070000  7.3802970000
121       5   5  0.05879999999999999810 38.6656770000 25.0117840000  8.7483920000
122       5   5 -0.08329999999999999905 37.6914360000 27.6312190000  6.6931530000
123       5   5 -0.08329999999999999905 38.1659850000 23.6366270000  9.1995720000
124       5   5 -0.18429999999999999161 35.5867430000 26.0109270000 10.6292430000
125       5   5 -0.17999999999999999334 39.1866050000 27.4366110000  6.4232490000
126       5   5 -0.17999999999999999334 37.0255810000 23.0801950000  8.3418120000
127       5   6  0.07330000000000000404 37.0649820000 25.5448330000  6.7560200000
128       5   6  0.07330000000000000404 35.9508090000 26.6566690000  7.5366410000
129       5   6  0.07330000000000000404 39.0768610000 24.9537120000  7.7369300000
130       5   6  0.07330000000000000404 39.4680120000 25.3617140000  9.4045600000
131       5   6  0.05999999999999999778 37.1601190000 27.7997550000  5.7453060000
132       5   6  0.05999999999999999778 37.5344670000 28.5235160000  7.3085370000
133       5   6  0.05999999999999999778 39.0273130000 22.9547810000  9.1682710000
134       5   6  0.05999999999999999778 37.8557410000 23.6952140000 10.2476380000
135       5   6  0.05999999999999999778 39.3736050000 26.5525990000  5.8004170000
136       5   6  0.05999999999999999778 39.6013560000 28.3048920000  5.8995300000
137       5   6  0.05999999999999999778 39.7456950000 27.3198370000  7.3581970000
138       5   6  0.05999999999999999778 37.3307030000 22.9742140000  7.2924740000
139       5   6  0.05999999999999999778 36.7131210000 22.0933820000  8.6994450000
140       5   6  0.05999999999999999778 36.1483490000 23.7355840000  8.3734100000
141       6   1  1.60210000000000007958 36.5657700000 28.1315430000 25.5594890000
142       6   2 -0.01499999999999999944 34.9747740000 30.2166860000 26.0775050000
143       6   2 -0.01499999999999999944 35.4833580000 30.0116010000 23.9687200000
144       6   2 -0.01499999999999999944 34.0454880000 28.6483610000 24.8743620000
145       6   3 -0.64549999999999996270 36.0211100000 27.4530040000 26.7339960000
146       6   3 -0.64549999999999996270 36.9072630000 27.4417900000 24.3182500000
147       6   4 -0.56599999999999994760 37.8217960000 29.0848490000 26.0107760000
148       6   5  0.05879999999999999810 37.8789350000 29.5902470000 27.4062400000
149       6   5  0.05879999999999999810 38.9194110000 29.3790660000 25.0554600000
150       6   5 -0.08329999999999999905 38.4862470000 28.6031770000 28.4088110000
151       6   5 -0.08329999999999999905 38.6266160000 30.5187310000 24.0757920000
152       6   5 -0.18429999999999999161 35.1760770000 29.3297960000 25.0827490000
153       6   5 -0.17999999999999999334 39.9071190000 28.1454780000 28.0654660000
154       6   5 -0.17999999999999999334 38.2556920000 31.8399690000 24.7559650000
155       6   6  0.07330000000000000404 38.4634880000 30.5143630000 27.3617890000
156       6   6  0.07330000000000000404 36.8691890000 29.8688880000 27.7202610000
157       6   6  0.07330000000000000404 39.7826190000 29.6264530000 25.6792970000
158       6   6  0.07330000000000000404 39.1643700000 28.4612960000 24.5128350000
159       6   6  0.05999999999999999778 38.4811160000 29.0996150000 29.3899520000
160       6   6  0.05999999999999999778 37.8217590000 27.7361450000 28.4878130000
161       6   6  0.05999999999999999778 39.5265310000 30.6527410000 23.4593710000
162       6   6  0.05999999999999999778 37.8283150000 30.2081150000 23.3943520000
163       6   6  0.05999999999999999778 40.5980870000 28.9945570000 27.9880420000
164       6   6  0.05999999999999999778 40.2941390000 27.4725250000 28.8384870000
165       6   6  0.05999999999999999778 39.9286280000 27.6002340000 27.1154180000
166       6   6  0.05999999999999999778 39.0623630000 32.1906970000 25.4130140000
167       6   6  0.05999999999999999778 38.0666780000 32.6223260000 24.0133180000
168       6   6  0.05999999999999999778 37.3491600000 31.7342070000 25.3618380000
169       7   1  1.60210000000000007958 21.9729350000 41.6427750000 31.9612150000
170       7   2 -0.01499999999999999944 23.4755500000 42.6760960000 33.9161640000
171       7   2 -0.01499999999999999944 21.9912180000 41.2455200000 34.6217850000
172       7   2 -0.01499999999999999944 23.7711080000 40.5376160000 33.5840250000
173       7   3 -0.64549999999999996270 23.0745430000 41.8666200000 31.0269290000
174       7   3 -0.64549999999999996270 21.0983500000 40.4742810000 31.9085600000
175       7   4 -0.56599999999999994760 21.0564750000 42.9991760000 32.0628600000
176       7   5  0.05879999999999999810 21.6760520000 44.3133150000 31.7543500000
177       7   5  0.05879999999999999810 19.6117890000 42.9037990000 32.3910920000
178       7   5 -0.08329999999999999905 21.7167950000 44.6549470000 30.2610620000
179       7   5 -0.08329999999999999905 19.3017030000 42.7861810000 33.8858580000
180       7   5 -0.18429999999999999161 22.8578930000 41.5121260000 33.6327760000
181       7   5 -0.17999999999999999334 20.3472190000 44.6607980000 29.5751480000
182       7   5 -0.17999999999999999334 19.8807480000 43.9255860000 34.7298680000
183       7   6  0.07330000000000000404 21.0918820000 45.0529280000 32.3105740000
184       7   6  0.07330000000000000404 22.6873910000 44.3307760000 32.1699510000
185       7   6  0.07330000000000000404 19.1647870000 43.8132960000 31.9805970000
186       7   6  0.07330000000000000404 19.1853090000 42.0579130000 31.8439710000
187       7   6  0.05999999999999999778 22.1827090000 45.6469910000 30.1722450000
188       7   6  0.05999999999999999778 22.3837080000 43.9446380000 29.7608450000
189       7   6  0.05999999999999999778 18.2076360000 42.7618150000 33.9868790000
190       7   6  0.05999999999999999778 19.6677390000 41.8217980000 34.2520690000
191       7   6  0.05999999999999999778 19.6593720000 45.3712080000 30.0511210000
192       7   6  0.05999999999999999778 20.4432300000 44.9471900000 28.5220690000
193       7   6  0.05999999999999999778 19.8858200000 43.6675080000 29.6040060000
194       7   6  0.05999999999999999778 19.4927510000 44.8998740000 34.4048100000
195       7   6  0.05999999999999999778 19.6223480000 43.7995520000 35.7865980000
196       7   6  0.05999999999999999778 20.9734690000 43.9570100000 34.6588690000
197       8   1  1.60210000000000007958 58.2668110000 53.4080810000 39.2346540000
198       8   2 -0.01499999999999999944 59.9941220000 53.4778170000 41.2740070000
199       8   2 -0.01499999999999999944 58.2115260000 52.2931720000 41.6822450000
200       8   2 -0.01499999999999999944 59.7548340000 51.5085980000 40.3598520000
201       8   3 -0.64549999999999996270 59.3812000000 53.6206900000 38.3129860000
202       8   3 -0.64549999999999996270 57.1326350000 52.5370060000 38.9381330000
203       8   4 -0.56599999999999994760 57.7107630000 54.8568830000 39.7655360000
204       8   5  0.05879999999999999810 58.6300160000 56.0234680000 39.7736760000
205       8   5  0.05879999999999999810 56.2896400000 55.0123960000 40.1657560000
206       8   5 -0.08329999999999999905 58.7395140000 56.7479660000 38.4277960000
207       8   5 -0.08329999999999999905 55.9737700000 54.5588530000 41.5936350000
208       8   5 -0.18429999999999999161 59.1080800000 52.6154620000 40.7374370000
209       8   5 -0.17999999999999999334 57.4067760000 57.2626000000 37.8753350000
210       8   5 -0.17999999999999999334 56.8214480000 55.2512680000 42.6650330000
211       8   6  0.07330000000000000404 58.2494760000 56.6937190000 40.5506060000
212       8   6  0.07330000000000000404 59.6186550000 55.6890430000 40.1001570000
213       8   6  0.07330000000000000404 56.0748720000 56.0781300000 40.0491920000
214       8   6  0.07330000000000000404 55.6643460000 54.4754470000 39.4464220000
215       8   6  0.05999999999999999778 59.4330150000 57.5889450000 38.5724570000
216       8   6  0.05999999999999999778 59.2079550000 56.0702090000 37.7061740000
217       8   6  0.05999999999999999778 54.9079130000 54.7622940000 41.7678240000
218       8   6  0.05999999999999999778 56.0962110000 53.4731090000 41.6591660000
219       8   6  0.05999999999999999778 56.9178430000 57.9520630000 38.5753000000
220       8   6  0.05999999999999999778 57.5603460000 57.8002620000 36.9332370000
221       8   6  0.05999999999999999778 56.7168050000 56.4360980000 37.6724070000
222       8   6  0.05999999999999999778 56.6805080000 56.3398950000 42.6433600000
223       8   6  0.05999999999999999778 56.5496650000 54.8997750000 43.6659920000
224       8   6  0.05999999999999999778 57.8879980000 55.0463630000 42.5216720000
225       9   1  1.60210000000000007958 17.7432800000 24.6763060000 14.9287650000
226       9   2 -0.01499999999999999944 17.6625480000 25.6356680000 17.4228650000
227       9   2 -0.01499999999999999944 15.7046200000 25.5057450000 16.4755920000
228       9   2 -0.01499999999999999944 16.6949120000 23.6938630000 17.1702030000
229       9   3 -0.64549999999999996270 18.9602750000 23.9439780000 15.2739530000
230       9   3 -0.64549999999999996270 16.7071240000 24.1445820000 14.0474590000
231       9   4 -0.56599999999999994760 18.1352640000 26.1943150000 14.4470470000
232       9   5  0.05879999999999999810 19.4020480000 26.8002640000 14.9308830000
233       9   5  0.05879999999999999810 17.2685280000 26.9222220000 13.4863860000
234       9   5 -0.08329999999999999905 20.6397940000 26.4037140000 14.1190860000
235       9   5 -0.08329999999999999905 16.0580430000 27.6168300000 14.1161160000
236       9   5 -0.18429999999999999161 16.8896580000 24.8905220000 16.6079840000
237       9   5 -0.17999999999999999334 20.5526230000 26.7388790000 12.6270010000
238       9   5 -0.17999999999999999334 16.4204350000 28.6021760000 15.2313080000
239       9   6  0.07330000000000000404 19.2423030000 27.8824800000 14.8999030000
240       9   6  0.07330000000000000404 19.5413620000 26.5305290000 15.9814410000
241       9   6  0.07330000000000000404 17.9235240000 27.6571660000 13.0106370000
242       9   6  0.07330000000000000404 16.9470380000 26.2234070000 12.7085350000
243       9   6  0.05999999999999999778 21.4977600000 26.9240740000 14.5687900000
244       9   6  0.05999999999999999778 20.8131400000 25.3305990000 14.2528960000
245       9   6  0.05999999999999999778 15.5309860000 28.1417100000 13.3071080000
246       9   6  0.05999999999999999778 15.3665240000 26.8571270000 14.4939760000
247       9   6  0.05999999999999999778 20.3872730000 27.8111940000 12.4621840000
248       9   6  0.05999999999999999778 21.4806810000 26.4638330000 12.1139020000
249       9   6  0.05999999999999999778 19.7363390000 26.1896400000 12.1449620000
250       9   6  0.05999999999999999778 17.0812510000 29.3973670000 14.8619340000
251       9   6  0.05999999999999999778 15.5224700000 29.0777920000 15.6396970000
252       9   6  0.05999999999999999778 16.9309420000 28.0963440000 16.0581000000
253      10   1  1.60210000000000007958 20.7224770000 39.6827050000 48.4769580000
254      10   2 -0.01499999999999999944 22.6051590000 38.4444780000 47.0383020000
255      10   2 -0.01499999999999999944 22.7280670000 38.0309150000 49.1740800000
256      10   2 -0.01499999999999999944 21.1598560000 37.1040950000 47.9791730000
257      10   3 -0.64549999999999996270 19.8532280000 39.6778330000 47.3018330000
258      10   3 -0.64549999999999996270 20.2353380000 39.4794160000 49.8387290000
259      10   4 -0.56599999999999994760 21.6858230000 41.0096120000 48.4404260000
260      10   5  0.05879999999999999810 21.9960450000 41.6401530000 47.1319180000
261      10   5  0.05879999999999999810 22.1818670000 41.6097340000 49.7044460000
262      10   5 -0.08329999999999999905 20.9225210000 42.6124590000 46.6314690000
263      10   5 -0.08329999999999999905 23.4239810000 40.9325060000 50.2899600000
264      10   5 -0.18429999999999999161 21.8797840000 38.2167980000 48.1512380000
265      10   5 -0.17999999999999999334 20.6124850000 43.7634020000 47.5934760000
266      10   5 -0.17999999999999999334 24.6107500000 40.8737470000 49.3235140000
267      10   6  0.07330000000000000404 22.9543320000 42.1503600000 47.2699160000
268      10   6  0.07330000000000000404 22.1606190000 40.8514930000 46.3924800000
269      10   6  0.07330000000000000404 22.3976060000 42.6533740000 49.4599620000
270      10   6  0.07330000000000000404 21.3663590000 41.6098340000 50.4336210000
271      10   6  0.05999999999999999778 21.2770390000 43.0141340000 45.6712150000
272      10   6  0.05999999999999999778 20.0105330000 42.0437370000 46.4208460000
273      10   6  0.05999999999999999778 23.7016640000 41.4942370000 51.1928060000
274      10   6  0.05999999999999999778 23.1580580000 39.9241490000 50.6225670000
275      10   6  0.05999999999999999778 21.5082800000 44.3569200000 47.8163040000
276      10   6  0.05999999999999999778 19.8664090000 44.4389210000 47.1607430000
277      10   6  0.05999999999999999778 20.2065320000 43.3897050000 48.5399950000
278      10   6  0.05999999999999999778 24.9202420000 41.8794480000 49.0101100000
279      10   6  0.05999999999999999778 25.4739350000 40.3905870000 49.7934100000
280      10   6  0.05999999999999999778 24.3619980000 40.3015230000 48.4230980000
281      11   1  1.60210000000000007958 25.1142270000 53.8901400000  6.9873350000
282      11   2 -0.01499999999999999944 23.4397220000 54.4726940000  4.9863120000
283      11   2 -0.01499999999999999944 25.0137370000 55.9535450000  5.2642440000
284      11   2 -0.01499999999999999944 25.4832400000 54.0305780000  4.3543850000
285      11   3 -0.64549999999999996270 24.8227270000 52.4717100000  6.7882810000
286      11   3 -0.64549999999999996270 26.4377080000 54.3977340000  7.3391830000
287      11   4 -0.56599999999999994760 23.9994270000 54.5420020000  7.9984480000
288      11   5  0.05879999999999999810 22.6577370000 53.9123380000  8.0954310000
289      11   5  0.05879999999999999810 24.3526490000 55.7025750000  8.8541660000
290      11   5 -0.08329999999999999905 22.5890850000 52.7221770000  9.0582830000
291      11   5 -0.08329999999999999905 24.2661230000 57.0623320000  8.1556760000
292      11   5 -0.18429999999999999161 24.7432170000 54.6395080000  5.2858240000
293      11   5 -0.17999999999999999334 23.0105010000 53.0448830000 10.4951270000
294      11   5 -0.17999999999999999334 22.8941950000 57.3568450000  7.5417010000
295      11   6  0.07330000000000000404 21.9787900000 54.7111400000  8.4094600000
296      11   6  0.07330000000000000404 22.3419760000 53.6031460000  7.0951650000
297      11   6  0.07330000000000000404 23.6538140000 55.6615710000  9.6940770000
298      11   6  0.07330000000000000404 25.3561510000 55.5437640000  9.2597650000
299      11   6  0.05999999999999999778 21.5508030000 52.3603140000  9.0464130000
300      11   6  0.05999999999999999778 23.2115350000 51.9152110000  8.6571700000
301      11   6  0.05999999999999999778 24.5142080000 57.8261490000  8.9058880000
302      11   6  0.05999999999999999778 25.0434750000 57.1195520000  7.3871870000
303      11   6  0.05999999999999999778 22.3969490000 53.8460530000 10.9264580000
304      11   6  0.05999999999999999778 22.9035740000 52.1634060000 11.1368260000
305      11   6  0.05999999999999999778 24.0597280000 53.3571690000 10.5392350000
306      11   6  0.05999999999999999778 22.1048430000 57.3454550000  8.3047450000
307      11   6  0.05999999999999999778 22.8828230000 58.3427020000  7.0649520000
308      11   6  0.05999999999999999778 22.6342590000 56.6172740000  6.7764980000
309      12   1  1.60210000000000007958 37.0245150000 10.4543650000 25.7137180000
310      12   2 -0.01499999999999999944 39.4470970000 11.2492220000 26.5179130000
311      12   2 -0.01499999999999999944 38.7914150000  9.3862100000 27.4382160000
312      12   2 -0.01499999999999999944 39.4423820000  9.3976850000 25.3592280000
313      12   3 -0.64549999999999996270 37.2372730000 11.1591430000 24.4509600000
314      12   3 -0.64549999999999996270 36.3280720000  9.1744740000 25.8131860000
315      12   4 -0.56599999999999994760 36.4076170000 11.4925770000 26.8234960000
316      12   5  0.05879999999999999810 36.6747200000 12.9463840000 26.6781860000
317      12   5  0.05879999999999999810 35.5377530000 10.9900910000 27.9165620000
318      12   5 -0.08329999999999999905 35.7217960000 13.6687380000 25.7198430000
319      12   5 -0.08329999999999999905 36.2900070000 10.4165450000 29.1205020000
320      12   5 -0.18429999999999999161 38.7916390000 10.0923570000 26.2972960000
321      12   5 -0.17999999999999999334 34.2399460000 13.5448880000 26.0873130000