Generated by pymatgen.io.lammps.data.LammpsData

17717  atoms
17073  bonds
31253  angles
34917  dihedrals

   15  atom types
   14  bond types
   23  angle types
   22  dihedral types

-0.2500000000 60.2500000000  xlo xhi
-0.2500000000 60.2500000000  ylo yhi
-0.2500000000 60.2500000000  zlo zhi

Masses

1   15.99940
2   12.01070
3    1.00794
4   14.01000
5   32.06000
6   16.00000
7   12.01000
8   19.00000
9   16.00000
10  12.01000
11  12.01000
12   1.00800
13  32.06000
14  32.06000
15   6.94100

Pair Coeffs

1     0.1400  2.900000
2     0.0660  3.500000
3     0.0300  2.500000
4       0.17  3.249999
5       0.25  3.549340
6       0.21  2.959566
7      0.066  3.499450
8      0.053  2.948875
9       0.14  2.900000
10     0.066  3.500000
11     0.066  3.500000
12      0.03  2.500000
13  0.344001  3.590322
14  0.344001  3.590322
15  0.165057  1.506000

Bond Coeffs

1   320.00  1.410
2   268.00  1.529
3   340.00  1.090
4   441.80  1.323
5   235.40  1.818
6   637.10  1.442
7   372.00  1.570
8   320.00  1.410
9   320.00  1.380
10  268.00  1.529
11  340.00  1.090
12  340.00  1.090
13  157.87  2.133
14  154.36  2.117


Angle Coeffs

1    60.00  109.50
2    58.35  112.70
3    37.50  110.70
4    33.00  107.80
5    50.00  109.50
6    35.00  109.50
7    93.30  107.10
8    82.90  111.80
9   104.00  102.60
10  115.80  118.50
11   94.30  113.60
12   97.50  100.20
13   80.20  125.60
14   60.00  109.50
15   50.00  109.50
16   35.00  109.50
17   37.50  110.70
18   33.00  107.80
19   92.60  111.55
20   35.00  109.50
21   33.00  109.50
22   73.56  112.74
23   73.56  112.74


Dihedral Coeffs

1 3 0.062500000 1 0.000000000 -0.011000000 2 180.000000000 0.280500000 3 0.000000000
2 1 0.370500000 3 0.000000000
3 3 0.627500000 1 0.000000000 -0.309500000 2 180.000000000 0.273000000 3 0.000000000
4 1 0.150000000 3 0.000000000
5 1 0.234000000 3 0.000000000
6 1 0.150000000 3 0.000000000
7 3 0.567500000 1 0.000000000 -0.075500000 2 180.000000000 0.200000000 3 0.000000000
8 1 0.173400000 3 0.000000000
9 1 0.158000000 3 0.000000000
10 1 -0.001800000 3 0.000000000
11 3 3.916460000 1 0.000000000 -1.245000000 2 180.000000000 -0.381800000 3 0.000000000
12 3 0.062500000 1 0.000000000 -0.011000000 2 180.000000000 0.280500000 3 0.000000000
13 3 0.062500000 1 0.000000000 -0.011000000 2 180.000000000 0.280500000 3 0.000000000
14 1 0.370500000 3 0.000000000
15 1 0.370500000 3 0.000000000
16 3 -0.533500000 1 0.000000000 -0.783500000 2 180.000000000 0.337500000 3 0.000000000
17 1 0.370500000 3 0.000000000
18 3 1.119000000 1 0.000000000 -1.163500000 2 180.000000000 -0.341500000 3 0.000000000
19 1 0.234000000 3 0.000000000
20 1 0.150000000 3 0.000000000
21 4 5.431700000 1 0.000000000 -3.590000000 2 180.000000000 1.055600000 3 0.000000000 0.058320000 4 180.000000000
22 4 5.431700000 1 0.000000000 -3.590000000 2 180.000000000 1.055600000 3 0.000000000 0.058320000 4 180.000000000


Atoms

1         1   1 -0.40000000000000002220 32.5623430000 21.4132930000 35.8906970000
2         1   2 -0.11999999999999999556 32.2328870000 19.4751460000 34.5181470000
3         1   2 -0.11999999999999999556 32.6614010000 23.2277140000 37.4527590000
4         1   2  0.14000000000000001332 32.9959460000 20.7852990000 34.6929020000
5         1   2  0.14000000000000001332 33.2045280000 22.6533370000 36.1499950000
6         1   2 -0.11999999999999999556 30.7041980000 19.6316160000 34.4692560000
7         1   2 -0.11999999999999999556 32.9582540000 22.3554650000 38.6787330000
8         1   2 -0.17999999999999999334 30.1993150000 20.4836670000 33.2981150000
9         1   2 -0.17999999999999999334 32.4050870000 22.9540070000 39.9761830000
10        1   3  0.05999999999999999778 32.5899170000 18.9982270000 33.5936570000
11        1   3  0.05999999999999999778 32.5029930000 18.8069560000 35.3474130000
12        1   3  0.05999999999999999778 33.0956150000 24.2284730000 37.5924740000
13        1   3  0.05999999999999999778 31.5753560000 23.3642650000 37.3479500000
14        1   3  0.02999999999999999889 32.8254760000 21.4586300000 33.8352130000
15        1   3  0.02999999999999999889 34.0802300000 20.5880280000 34.7413290000
16        1   3  0.02999999999999999889 34.2972550000 22.5013240000 36.2234320000
17        1   3  0.02999999999999999889 33.0221740000 23.3513220000 35.3139610000
18        1   3  0.05999999999999999778 30.2576860000 18.6294860000 34.4056260000
19        1   3  0.05999999999999999778 30.3641110000 20.0692760000 35.4150460000
20        1   3  0.05999999999999999778 32.5355830000 21.3578240000 38.5152060000
21        1   3  0.05999999999999999778 34.0475210000 22.2214830000 38.7688110000
22        1   3  0.05999999999999999778 30.5600500000 20.0939300000 32.3364820000
23        1   3  0.05999999999999999778 29.1034200000 20.4943090000 33.2641000000
24        1   3  0.05999999999999999778 30.5335680000 21.5246300000 33.3834650000
25        1   3  0.05999999999999999778 31.3143550000 23.0705430000 39.9222500000
26        1   3  0.05999999999999999778 32.6295660000 22.3168320000 40.8401780000
27        1   3  0.05999999999999999778 32.8343860000 23.9459440000 40.1727480000
28        2   1 -0.40000000000000002220  6.4503850000 19.3382100000 14.4037920000
29        2   2 -0.11999999999999999556  4.1726650000 19.9881400000 14.0317360000
30        2   2 -0.11999999999999999556  8.7814390000 18.9995160000 14.8436230000
31        2   2  0.14000000000000001332  5.1774260000 18.8394020000 14.0192600000
32        2   2  0.14000000000000001332  7.4703380000 18.3498580000 14.4181250000
33        2   2 -0.11999999999999999556  4.5410010000 21.1647150000 13.1131710000
34        2   2 -0.11999999999999999556  8.7506170000 19.5682130000 16.2675550000
35        2   2 -0.17999999999999999334  4.6248480000 20.7959540000 11.6267480000
36        2   2 -0.17999999999999999334 10.0795800000 20.2136220000 16.6736650000
37        2   3  0.05999999999999999778  3.1923440000 19.5812290000 13.7436390000
38        2   3  0.05999999999999999778  4.0774380000 20.3501350000 15.0646980000
39        2   3  0.05999999999999999778  9.5790700000 18.2470270000 14.7592060000
40        2   3  0.05999999999999999778  9.0224500000 19.7997030000 14.1289610000
41        2   3  0.02999999999999999889  5.2424040000 18.3828960000 13.0165410000
42        2   3  0.02999999999999999889  4.8557370000 18.0478320000 14.7170180000
43        2   3  0.02999999999999999889  7.1976030000 17.5400330000 15.1198030000
44        2   3  0.02999999999999999889  7.5696010000 17.8998300000 13.4146250000
45        2   3  0.05999999999999999778  3.7887860000 21.9545420000 13.2474410000
46        2   3  0.05999999999999999778  5.4995670000 21.5824290000 13.4424010000
47        2   3  0.05999999999999999778  7.9395320000 20.3014710000 16.3393570000
48        2   3  0.05999999999999999778  8.5024900000 18.7590840000 16.9720490000
49        2   3  0.05999999999999999778  3.6913820000 20.3344560000 11.2768550000
50        2   3  0.05999999999999999778  4.8089800000 21.6846860000 11.0115180000
51        2   3  0.05999999999999999778  5.4405380000 20.0892760000 11.4321530000
52        2   3  0.05999999999999999778 10.3351800000 21.0443000000 16.0022290000
53        2   3  0.05999999999999999778 10.0373160000 20.6117230000 17.6947430000
54        2   3  0.05999999999999999778 10.9041970000 19.4889500000 16.6320490000
55        3   1 -0.40000000000000002220 10.0071060000 34.7454210000 14.2015390000
56        3   2 -0.11999999999999999556  8.7681830000 33.4932920000 15.8282200000
57        3   2 -0.11999999999999999556 11.4831830000 36.0032190000 12.7940180000
58        3   2  0.14000000000000001332  8.7525860000 34.1230710000 14.4381000000
59        3   2  0.14000000000000001332 10.1014840000 35.3755920000 12.9321590000
60        3   2 -0.11999999999999999556  9.0532050000 34.4818730000 16.9706880000
61        3   2 -0.11999999999999999556 12.6267540000 34.9817840000 12.8234410000
62        3   2 -0.17999999999999999334  8.0090030000 35.5967850000 17.1088310000
63        3   2 -0.17999999999999999334 14.0051200000 35.6354740000 12.6805490000
64        3   3  0.05999999999999999778  7.7948990000 33.0068370000 15.9884820000
65        3   3  0.05999999999999999778  9.5276500000 32.6994120000 15.8372770000
66        3   3  0.05999999999999999778 11.5099170000 36.5666610000 11.8498780000
67        3   3  0.05999999999999999778 11.6169440000 36.7343500000 13.6043760000
68        3   3  0.02999999999999999889  7.9434830000 34.8687020000 14.3517770000
69        3   3  0.02999999999999999889  8.5650800000 33.3494440000 13.6743740000
70        3   3  0.02999999999999999889  9.9358750000 34.6315840000 12.1311740000
71        3   3  0.02999999999999999889  9.3157560000 36.1456610000 12.8372110000
72        3   3  0.05999999999999999778  9.1034130000 33.9155510000 17.9111360000
73        3   3  0.05999999999999999778 10.0441220000 34.9241940000 16.8152560000
74        3   3  0.05999999999999999778 12.5742150000 34.4171500000 13.7610500000
75        3   3  0.05999999999999999778 12.4778790000 34.2526310000 12.0118120000
76        3   3  0.05999999999999999778  6.9974140000 35.1840830000 17.2234050000
77        3   3  0.05999999999999999778  8.2158030000 36.2219740000 17.9855470000
78        3   3  0.05999999999999999778  8.0040250000 36.2552930000 16.2319300000
79        3   3  0.05999999999999999778 14.1898310000 36.3470150000 13.4965010000
80        3   3  0.05999999999999999778 14.8080190000 34.8886350000 12.7018800000
81        3   3  0.05999999999999999778 14.0885210000 36.1879680000 11.7346810000
82        4   1 -0.40000000000000002220 28.8256480000 32.3783400000 54.5157640000
83        4   2 -0.11999999999999999556 26.4863990000 31.8524320000 54.5024770000
84        4   2 -0.11999999999999999556 31.1957920000 32.6559740000 54.7332830000
85        4   2  0.14000000000000001332 27.5746280000 32.7875640000 53.9823010000
86        4   2  0.14000000000000001332 29.9156450000 33.1894800000 54.1018690000
87        4   2 -0.11999999999999999556 26.3760410000 31.7959820000 56.0349250000
88        4   2 -0.11999999999999999556 31.5562530000 31.2350920000 54.2826040000
89        4   2 -0.17999999999999999334 26.0184030000 33.1375820000 56.6865950000
90        4   2 -0.17999999999999999334 32.8473570000 30.7213880000 54.9281890000
91        4   3  0.05999999999999999778 25.5286040000 32.1769060000 54.0700990000
92        4   3  0.05999999999999999778 26.6863630000 30.8437420000 54.1155950000
93        4   3  0.05999999999999999778 32.0143060000 33.3463280000 54.4822330000
94        4   3  0.05999999999999999778 31.0825110000 32.6815680000 55.8267350000
95        4   3  0.02999999999999999889 27.3687050000 33.8323920000 54.2721230000
96        4   3  0.02999999999999999889 27.6057400000 32.7556560000 52.8800540000
97        4   3  0.02999999999999999889 29.9962690000 33.1747000000 52.9992200000
98        4   3  0.02999999999999999889 29.7407020000 34.2360320000 54.4076690000
99        4   3  0.05999999999999999778 25.6113620000 31.0516900000 56.2975660000
100       4   3  0.05999999999999999778 27.3254610000 31.4308800000 56.4436130000
101       4   3  0.05999999999999999778 30.7235720000 30.5645940000 54.5229290000
102       4   3  0.05999999999999999778 31.6607380000 31.2217260000 53.1864870000
103       4   3  0.05999999999999999778 25.0915240000 33.5509200000 56.2661080000
104       4   3  0.05999999999999999778 25.8726130000 33.0226720000 57.7672420000
105       4   3  0.05999999999999999778 26.8118290000 33.8805210000 56.5412300000
106       4   3  0.05999999999999999778 32.7578010000 30.6975120000 56.0225360000
107       4   3  0.05999999999999999778 33.0882470000 29.7057440000 54.5915740000
108       4   3  0.05999999999999999778 33.7014150000 31.3663430000 54.6802150000
109       5   1 -0.40000000000000002220 11.7427020000 56.3152410000 52.6194720000
110       5   2 -0.11999999999999999556  9.8307550000 55.9673750000 51.2150870000
111       5   2 -0.11999999999999999556 13.6418000000 56.9705010000 53.9256250000
112       5   2  0.14000000000000001332 10.8356580000 55.3213860000 52.1649120000
113       5   2  0.14000000000000001332 12.7337650000 55.8201140000 53.5082870000
114       5   2 -0.11999999999999999556 10.4622310000 56.6563080000 49.9942790000
115       5   2 -0.11999999999999999556 12.9155790000 58.0736490000 54.7051230000
116       5   2 -0.17999999999999999334 11.2448700000 55.7091080000 49.0762600000
117       5   2 -0.17999999999999999334 13.8486340000 59.2174820000 55.1158230000
118       5   3  0.05999999999999999778  9.1307420000 55.1865660000 50.8835420000
119       5   3  0.05999999999999999778  9.2441180000 56.7022130000 51.7834080000
120       5   3  0.05999999999999999778 14.4582320000 56.5575410000 54.5359400000
121       5   3  0.05999999999999999778 14.1036010000 57.3957390000 53.0228310000
122       5   3  0.02999999999999999889 11.3907120000 54.5114960000 51.6608690000
123       5   3  0.02999999999999999889 10.3091830000 54.8701210000 53.0228850000
124       5   3  0.02999999999999999889 12.2506340000 55.3709170000 54.3956200000
125       5   3  0.02999999999999999889 13.3189510000 55.0261900000 53.0116660000
126       5   3  0.05999999999999999778  9.6599400000 57.1372380000 49.4174600000
127       5   3  0.05999999999999999778 11.1233010000 57.4576490000 50.3443690000
128       5   3  0.05999999999999999778 12.0947540000 58.4606090000 54.0909660000
129       5   3  0.05999999999999999778 12.4529200000 57.6341210000 55.6025260000
130       5   3  0.05999999999999999778 10.6195490000 54.8699070000 48.7423750000
131       5   3  0.05999999999999999778 11.6028320000 56.2347820000 48.1830710000
132       5   3  0.05999999999999999778 12.1229000000 55.2908290000 49.5829340000
133       5   3  0.05999999999999999778 14.3009020000 59.6921990000 54.2347540000
134       5   3  0.05999999999999999778 13.3109170000 59.9940120000 55.6732560000
135       5   3  0.05999999999999999778 14.6669660000 58.8555190000 55.7531520000
136       6   1 -0.40000000000000002220 44.3370160000 39.1838820000  2.4143610000
137       6   2 -0.11999999999999999556 42.0128940000 38.8439600000  1.9329510000
138       6   2 -0.11999999999999999556 46.6924730000 39.5911590000  2.5814660000
139       6   2  0.14000000000000001332 43.0987960000 38.8164320000  3.0050310000
140       6   2  0.14000000000000001332 45.4266960000 39.1831170000  3.3253740000
141       6   2 -0.11999999999999999556 42.2813520000 37.9216220000  0.7325420000
142       6   2 -0.11999999999999999556 46.6397980000 41.0159710000  2.0165870000
143       6   2 -0.17999999999999999334 42.3714000000 36.4338010000  1.0941370000
144       6   2 -0.17999999999999999334 47.9234310000 41.4043760000  1.2756080000
145       6   3  0.05999999999999999778 41.0611050000 38.5689940000  2.4105460000
146       6   3  0.05999999999999999778 41.9057180000 39.8785120000  1.5789260000
147       6   3  0.05999999999999999778 47.5418130000 39.4949660000  3.2735270000
148       6   3  0.05999999999999999778 46.8643380000 38.8740710000  1.7657630000
149       6   3  0.02999999999999999889 43.1831440000 37.8124390000  3.4555300000
150       6   3  0.02999999999999999889 42.8456120000 39.5177410000  3.8180490000
151       6   3  0.02999999999999999889 45.2237190000 39.8876510000  4.1530140000
152       6   3  0.02999999999999999889 45.5447480000 38.1778770000  3.7669010000
153       6   3  0.05999999999999999778 41.4752560000 38.0670760000 -0.0000820000
154       6   3  0.05999999999999999778 43.2112240000 38.2380290000  0.2457670000
155       6   3  0.05999999999999999778 45.7782750000 41.0997160000  1.3446900000
156       6   3  0.05999999999999999778 46.4613500000 41.7229820000  2.8417300000
157       6   3  0.05999999999999999778 41.4694780000 36.0963420000  1.6227400000
158       6   3  0.05999999999999999778 42.4814380000 35.8170110000  0.1942930000
159       6   3  0.05999999999999999778 43.2338720000 36.2272390000  1.7391850000
160       6   3  0.05999999999999999778 48.1082110000 40.7303390000  0.4284270000
161       6   3  0.05999999999999999778 47.8662630000 42.4263520000  0.8816950000
162       6   3  0.05999999999999999778 48.7982380000 41.3506360000  1.9379520000
163       7   1 -0.40000000000000002220 33.0147690000 12.1951150000 23.4901100000
164       7   2 -0.11999999999999999556 35.3278130000 12.4804740000 24.0533550000
165       7   2 -0.11999999999999999556 30.7892720000 11.6206900000 22.8124840000
166       7   2  0.14000000000000001332 33.9387910000 13.1128550000 24.0567110000
167       7   2  0.14000000000000001332 31.6832840000 12.6864500000 23.4345690000
168       7   2 -0.11999999999999999556 35.8334950000 12.0646610000 22.6622590000
169       7   2 -0.11999999999999999556 30.7089640000 10.3298010000 23.6365630000
170       7   2 -0.17999999999999999334 35.9827130000 13.2300590000 21.6763330000
171       7   2 -0.17999999999999999334 29.8031810000  9.2747800000 22.9930520000
172       7   3  0.05999999999999999778 36.0262800000 13.1995150000 24.5058240000
173       7   3  0.05999999999999999778 35.3059560000 11.5997250000 24.7098000000
174       7   3  0.05999999999999999778 29.7834140000 12.0478850000 22.6886560000
175       7   3  0.05999999999999999778 31.1651340000 11.3950890000 21.8040410000
176       7   3  0.02999999999999999889 33.9322120000 14.0537450000 23.4798670000
177       7   3  0.02999999999999999889 33.6389050000 13.3617070000 25.0887360000
178       7   3  0.02999999999999999889 31.3327070000 12.9348930000 24.4533550000
179       7   3  0.02999999999999999889 31.6514380000 13.6146700000 22.8372540000
180       7   3  0.05999999999999999778 36.8061630000 11.5679210000 22.7841240000
181       7   3  0.05999999999999999778 35.1474010000 11.3176000000 22.2464470000
182       7   3  0.05999999999999999778 31.7201390000  9.9280590000 23.7662140000
183       7   3  0.05999999999999999778 30.3374420000 10.5700710000 24.6449330000
184       7   3  0.05999999999999999778 36.6322650000 14.0167240000 22.0837670000
185       7   3  0.05999999999999999778 36.4221780000 12.8906500000 20.7308540000
186       7   3  0.05999999999999999778 35.0133180000 13.6855910000 21.4410080000
187       7   3  0.05999999999999999778 30.1700340000  8.9962700000 21.9960380000
188       7   3  0.05999999999999999778 29.7577330000  8.3612820000 23.5983010000
189       7   3  0.05999999999999999778 28.7767960000  9.6483570000 22.8753780000
190       8   1 -0.40000000000000002220 28.0958120000 51.4493160000 53.5444140000
191       8   2 -0.11999999999999999556 26.4463600000 49.7502190000 53.1686200000
192       8   2 -0.11999999999999999556 29.6449690000 53.2749280000 53.6404930000
193       8   2  0.14000000000000001332 27.5532460000 50.2555170000 54.0899100000
194       8   2  0.14000000000000001332 29.1469060000 52.0056780000 54.3209530000
195       8   2 -0.11999999999999999556 26.8976030000 49.4740100000 51.7250660000
196       8   2 -0.11999999999999999556 28.5839110000 54.3783650000 53.5481100000
197       8   2 -0.17999999999999999334 27.9719000000 48.3862160000 51.6023420000
198       8   2 -0.17999999999999999334 29.1080890000 55.6446270000 52.8629540000
199       8   3  0.05999999999999999778 26.0308850000 48.8337620000 53.6125710000
200       8   3  0.05999999999999999778 25.6392710000 50.4956420000 53.1602510000
201       8   3  0.05999999999999999778 30.5181420000 53.6423060000 54.1992260000
202       8   3  0.05999999999999999778 29.9991360000 53.0145440000 52.6325790000
203       8   3  0.02999999999999999889 28.3498570000 49.4997770000 54.2009720000
204       8   3  0.02999999999999999889 27.1474590000 50.4510680000 55.0969010000
205       8   3  0.02999999999999999889 28.7803830000 52.2341760000 55.3387960000
206       8   3  0.02999999999999999889 29.9670450000 51.2729680000 54.4204390000
207       8   3  0.05999999999999999778 26.0158160000 49.1784200000 51.1396060000
208       8   3  0.05999999999999999778 27.2689260000 50.4077540000 51.2869260000
209       8   3  0.05999999999999999778 27.7145760000 53.9902240000 53.0056290000
210       8   3  0.05999999999999999778 28.2334920000 54.6253560000 54.5623930000
211       8   3  0.05999999999999999778 27.6452720000 47.4481110000 52.0714220000
212       8   3  0.05999999999999999778 28.1964420000 48.1730420000 50.5504890000
213       8   3  0.05999999999999999778 28.9102310000 48.6905100000 52.0814580000
214       8   3  0.05999999999999999778 29.4372310000 55.4297910000 51.8374310000
215       8   3  0.05999999999999999778 28.3355270000 56.4212200000 52.8089080000
216       8   3  0.05999999999999999778 29.9664170000 56.0651110000 53.4045610000
217       9   1 -0.40000000000000002220 48.8296170000 35.3438560000 12.2310440000
218       9   2 -0.11999999999999999556 50.0297130000 34.7929670000 10.2297610000
219       9   2 -0.11999999999999999556 47.9187380000 35.9024910000 14.3758530000
220       9   2  0.14000000000000001332 48.6584370000 35.0293420000 10.8566800000
221       9   2  0.14000000000000001332 47.6093930000 35.5759360000 12.9199140000
222       9   2 -0.11999999999999999556 50.8484000000 33.6744590000 10.8949310000
223       9   2 -0.11999999999999999556 48.7347890000 37.1883710000 14.5562010000
224       9   2 -0.17999999999999999334 50.1922720000 32.2900610000 10.8214020000
225       9   2 -0.17999999999999999334 49.0312230000 37.4972050000 16.0273810000
226       9   3  0.05999999999999999778 49.8780900000 34.5630380000  9.1649840000
227       9   3  0.05999999999999999778 50.5955190000 35.7336170000 10.2762180000
228       9   3  0.05999999999999999778 46.9652280000 35.9862480000 14.9175010000
229       9   3  0.05999999999999999778 48.4609730000 35.0533240000 14.8163330000
230       9   3  0.02999999999999999889 48.0186780000 34.1358130000 10.7547920000
231       9   3  0.02999999999999999889 48.1444930000 35.8581260000 10.3410130000
232       9   3  0.02999999999999999889 47.0648550000 36.4133900000 12.4458860000
233       9   3  0.02999999999999999889 46.9655820000 34.6812990000 12.8526720000
234       9   3  0.05999999999999999778 51.8332890000 33.6335870000 10.4091250000
235       9   3  0.05999999999999999778 51.0243960000 33.9420670000 11.9433290000
236       9   3  0.05999999999999999778 49.6717620000 37.0956000000 13.9957050000
237       9   3  0.05999999999999999778 48.1842860000 38.0291040000 14.1059990000
238       9   3  0.05999999999999999778 49.9639630000 32.0113140000  9.7836450000
239       9   3  0.05999999999999999778 50.8531770000 31.5197980000 11.2363190000
240       9   3  0.05999999999999999778 49.2552310000 32.2573820000 11.3901720000
241       9   3  0.05999999999999999778 49.6061120000 36.6849270000 16.4920250000
242       9   3  0.05999999999999999778 49.6131730000 38.4206260000 16.1346050000
243       9   3  0.05999999999999999778 48.1041710000 37.6182810000 16.6042590000
244      10   1 -0.40000000000000002220 43.5957200000 11.4088790000 33.0106340000
245      10   2 -0.11999999999999999556 45.9028620000 10.7793930000 33.1829290000
246      10   2 -0.11999999999999999556 41.2308830000 11.7246900000 32.7874960000
247      10   2  0.14000000000000001332 44.9012470000 11.9305760000 33.2119530000
248      10   2  0.14000000000000001332 42.5785700000 12.4002190000 33.0099640000
249      10   2 -0.11999999999999999556 45.8925790000  9.9606220000 31.8816720000
250      10   2 -0.11999999999999999556 40.8421090000 10.7484420000 33.9045200000
251      10   2 -0.17999999999999999334 46.2595210000 10.7686960000 30.6307370000
252      10   2 -0.17999999999999999334 39.4833190000 10.0838390000 33.6603650000
253      10   3  0.05999999999999999778 46.9047320000 11.2003650000 33.3521740000
254      10   3  0.05999999999999999778 45.6877150000 10.1152730000 34.0313230000
255      10   3  0.05999999999999999778 40.4661640000 12.5096510000 32.6946480000
256      10   3  0.05999999999999999778 41.2609290000 11.1947260000 31.8245000000
257      10   3  0.02999999999999999889 45.1314170000 12.6736960000 32.4290990000
258      10   3  0.02999999999999999889 44.9534330000 12.4530760000 34.1821110000
259      10   3  0.02999999999999999889 42.5822470000 12.9415650000 33.9740620000
260      10   3  0.02999999999999999889 42.7767340000 13.1392950000 32.2137930000
261      10   3  0.05999999999999999778 46.6003450000  9.1274570000 31.9938760000
262      10   3  0.05999999999999999778 44.8990280000  9.5156540000 31.7528860000
263      10   3  0.05999999999999999778 41.6226620000  9.9848730000 33.9960740000
264      10   3  0.05999999999999999778 40.8215830000 11.2896160000 34.8633100000
265      10   3  0.05999999999999999778 47.2337100000 11.2629680000 30.7465510000
266      10   3  0.05999999999999999778 46.3165650000 10.1211280000 29.7477540000
267      10   3  0.05999999999999999778 45.5140580000 11.5446510000 30.4190950000
268      10   3  0.05999999999999999778 39.4874240000  9.5125120000 32.7224130000
269      10   3  0.05999999999999999778 39.2232350000  9.3919070000 34.4705860000
270      10   3  0.05999999999999999778 38.6809040000 10.8307880000 33.5891560000
271      11   1 -0.40000000000000002220  2.9319980000  9.2544280000 53.9931060000
272      11   2 -0.11999999999999999556  1.4036130000 10.9513650000 53.2628420000
273      11   2 -0.11999999999999999556  4.2233080000  7.4616040000 54.9206190000
274      11   2  0.14000000000000001332  2.8062700000 10.3671480000 53.1195240000
275      11   2  0.14000000000000001332  4.2092710000  8.6348210000 53.9482740000
276      11   2 -0.11999999999999999556  1.0442660000 11.3991090000 54.6890810000
277      11   2 -0.11999999999999999556  3.2249290000  6.3545020000 54.5607350000
278      11   2 -0.17999999999999999334  1.9407190000 12.5154120000 55.2392730000
279      11   2 -0.17999999999999999334  3.2588650000  5.1853180000 55.5504210000
280      11   3  0.05999999999999999778  1.3211550000 11.8027360000 52.5714860000
281      11   3  0.05999999999999999778  0.6805730000 10.1954830000 52.9267250000
282      11   3  0.05999999999999999778  5.2432250000  7.0508760000 54.9461290000
283      11   3  0.05999999999999999778  4.0085580000  7.8420990000 55.9296930000
284      11   3  0.02999999999999999889  3.5745510000 11.1213820000 53.3623010000
285      11   3  0.02999999999999999889  2.9793520000 10.0501080000 52.0771890000
286      11   3  0.02999999999999999889  4.4200520000  8.2846180000 52.9209070000
287      11   3  0.02999999999999999889  4.9905440000  9.3679760000 54.2156440000
288      11   3  0.05999999999999999778 -0.0000160000 11.7413960000 54.6893420000
289      11   3  0.05999999999999999778  1.0914470000 10.5290090000 55.3542310000
290      11   3  0.05999999999999999778  2.2176630000  6.7840840000 54.5212800000
291      11   3  0.05999999999999999778  3.4467690000  5.9866620000 53.5468080000
292      11   3  0.05999999999999999778  1.9479540000 13.3872330000 54.5709620000
293      11   3  0.05999999999999999778  1.5906420000 12.8513770000 56.2225490000
294      11   3  0.05999999999999999778  2.9771280000 12.1777260000 55.3594230000
295      11   3  0.05999999999999999778  3.0116670000  5.5220650000 56.5661380000
296      11   3  0.05999999999999999778  2.5399950000  4.4043730000 55.2743410000
297      11   3  0.05999999999999999778  4.2549310000  4.7234850000 55.5883170000
298      12   1 -0.40000000000000002220 32.3085790000 50.2453430000 33.5845670000
299      12   2 -0.11999999999999999556 30.4796760000 49.9564180000 32.0612550000
300      12   2 -0.11999999999999999556 34.0622100000 50.2399780000 35.2175790000
301      12   2  0.14000000000000001332 31.5843280000 50.8906960000 32.5472240000
302      12   2  0.14000000000000001332 33.3621350000 51.0327900000 34.1205660000
303      12   2 -0.11999999999999999556 29.4921430000 49.5170450000 33.1546400000
304      12   2 -0.11999999999999999556 34.7337950000 48.9565950000 34.7137430000
305      12   2 -0.17999999999999999334 28.7108150000 50.6720860000 33.7932930000
306      12   2 -0.17999999999999999334 35.4327000000 48.1781770000 35.8332150000
307      12   3  0.05999999999999999778 29.9383900000 50.4674260000 31.2516340000
308      12   3  0.05999999999999999778 30.9509610000 49.0677060000 31.6194430000
309      12   3  0.05999999999999999778 34.8114840000 50.8940340000 35.6870260000
310      12   3  0.05999999999999999778 33.3244310000 49.9929830000 35.9946250000
311      12   3  0.02999999999999999889 31.1625210000 51.8397390000 32.9206700000
312      12   3  0.02999999999999999889 32.2617800000 51.1413840000 31.7134690000
313      12   3  0.02999999999999999889 34.0782090000 51.2955380000 33.3200950000
314      12   3  0.02999999999999999889 32.9556630000 51.9765450000 34.5249130000
315      12   3  0.05999999999999999778 28.7837080000 48.8032060000 32.7116520000
316      12   3  0.05999999999999999778 30.0439890000 48.9738310000 33.9305970000
317      12   3  0.05999999999999999778 33.9778360000 48.3256970000 34.2329370000
318      12   3  0.05999999999999999778 35.4650760000 49.2168410000 33.9326750000
319      12   3  0.05999999999999999778 28.1800920000 51.2626810000 33.0341530000
320      12   3  0.05999999999999999778 27.9659560000 50.2962140000 34.5047440000
321      12   3  0.05999999999999999778 29.3733200000 51.3517590000 34.3426070000
322      12   3  0.05999999999999999778 34.7175050000 47.8812020000 36.6119890000
323      12   3  0.05999999999999999778 35.9078060000 47.2660780000 35.4521360000
324      12   3  0.05999999999999999778 36.2124370000 48.7845260000 36.3140730000
325      13   1 -0.40000000000000002220 55.1006410000 27.7362950000 25.0529760000
326      13   2 -0.11999999999999999556 53.9494460000 26.7896570000 26.9311320000
327      13   2 -0.11999999999999999556 56.1308160000 28.9658660000 23.2728440000
328      13   2  0.14000000000000001332 54.8319790000 26.5103060000 25.7177090000
329      13   2  0.14000000000000001332 55.9119350000 27.5926180000 23.8960370000
330      13   2 -0.11999999999999999556 52.6140690000 27.4764450000 26.6012020000