Generated by pymatgen.io.lammps.data.LammpsData

16448  atoms
15783  bonds
28610  angles
30669  dihedrals

   17  atom types
   18  bond types
   32  angle types
   32  dihedral types

-0.2500000000 60.2500000000  xlo xhi
-0.2500000000 60.2500000000  ylo yhi
-0.2500000000 60.2500000000  zlo zhi

Masses

1   18.998403
2   15.999400
3   12.010700
4   12.010700
5    1.007940
6   14.010000
7   32.060000
8   16.000000
9   12.010000
10  19.000000
11  16.000000
12  12.010000
13  12.010000
14   1.008000
15  32.060000
16  32.060000
17   6.941000

Pair Coeffs

1     0.0530  2.950000
2     0.1400  2.900000
3     0.0660  3.500000
4     0.0660  3.500000
5     0.0300  2.500000
6       0.17  3.249999
7       0.25  3.549340
8       0.21  2.959566
9      0.066  3.499450
10     0.053  2.948875
11      0.14  2.900000
12     0.066  3.500000
13     0.066  3.500000
14      0.03  2.500000
15  0.344001  3.590322
16  0.344001  3.590322
17  0.165057  1.506000

Bond Coeffs

1   455.00  1.355
2   367.00  1.332
3   320.00  1.410
4   470.00  1.351
5   268.00  1.529
6   340.00  1.090
7   268.00  1.529
8   441.80  1.323
9   235.40  1.818
10  637.10  1.442
11  372.00  1.570
12  320.00  1.410
13  320.00  1.380
14  268.00  1.529
15  340.00  1.090
16  340.00  1.090
17  157.87  2.133
18  154.36  2.117


Angle Coeffs

1    90.00  114.194
2    58.35  112.700
3    37.50  110.700
4    50.00  109.500
5    35.00  109.500
6    33.00  107.800
7   110.00  107.787
8   110.00  110.361
9    50.00  109.500
10   50.00  109.500
11   50.00  109.500
12   77.00  109.100
13   50.00  109.500
14   40.00  107.000
15   37.50  110.700
16   93.30  107.100
17   82.90  111.800
18  104.00  102.600
19  115.80  118.500
20   94.30  113.600
21   97.50  100.200
22   80.20  125.600
23   60.00  109.500
24   50.00  109.500
25   35.00  109.500
26   37.50  110.700
27   33.00  107.800
28   92.60  111.550
29   35.00  109.500
30   33.00  109.500
31   73.56  112.740
32   73.56  112.740


Dihedral Coeffs

1 3 0.062500000 1 0.000000000 -0.011000000 2 180.000000000 0.280500000 3 0.000000000
2 3 0.062500000 1 0.000000000 -0.011000000 2 180.000000000 0.280500000 3 0.000000000
3 1 0.370500000 3 0.000000000
4 1 0.370500000 3 0.000000000
5 3 1.726500000 1 0.000000000 -1.387000000 2 180.000000000 0.335500000 3 0.000000000
6 3 0.062500000 1 0.000000000 -0.011000000 2 180.000000000 0.280500000 3 0.000000000
7 3 0.627500000 1 0.000000000 -0.309500000 2 180.000000000 0.273000000 3 0.000000000
8 1 0.150000000 3 0.000000000
9 1 0.234000000 3 0.000000000
10 1 0.150000000 3 0.000000000
11 3 0.301000000 1 0.000000000 -1.359500000 2 180.000000000 0.367000000 3 0.000000000
12 3 0.301000000 1 0.000000000 -1.359500000 2 180.000000000 0.367000000 3 0.000000000
13 1 0.221000000 3 0.000000000
14 1 0.221000000 3 0.000000000
15 2 0.518500000 1 0.000000000 -0.728500000 2 180.000000000
16 2 0.518500000 1 0.000000000 -0.728500000 2 180.000000000
17 1 0.234000000 3 0.000000000
18 1 0.173400000 3 0.000000000
19 1 0.158000000 3 0.000000000
20 1 -0.001800000 3 0.000000000
21 3 3.916460000 1 0.000000000 -1.245000000 2 180.000000000 -0.381800000 3 0.000000000
22 3 0.062500000 1 0.000000000 -0.011000000 2 180.000000000 0.280500000 3 0.000000000
23 3 0.062500000 1 0.000000000 -0.011000000 2 180.000000000 0.280500000 3 0.000000000
24 1 0.370500000 3 0.000000000
25 1 0.370500000 3 0.000000000
26 3 -0.533500000 1 0.000000000 -0.783500000 2 180.000000000 0.337500000 3 0.000000000
27 1 0.370500000 3 0.000000000
28 3 1.119000000 1 0.000000000 -1.163500000 2 180.000000000 -0.341500000 3 0.000000000
29 1 0.234000000 3 0.000000000
30 1 0.150000000 3 0.000000000
31 4 5.431700000 1 0.000000000 -3.590000000 2 180.000000000 1.055600000 3 0.000000000 0.058320000 4 180.000000000
32 4 5.431700000 1 0.000000000 -3.590000000 2 180.000000000 1.055600000 3 0.000000000 0.058320000 4 180.000000000


Atoms

1         1   1 -0.23260000000000000120 23.9802780000 10.4028030000 48.7098480000
2         1   1 -0.23260000000000000120 22.4187540000  9.2706780000 47.6716270000
3         1   1 -0.11999999999999999556 22.5316280000 12.7612970000 48.2972910000
4         1   1 -0.11999999999999999556 22.9977210000 11.6345440000 46.4542220000
5         1   2 -0.36299999999999998934 21.8869990000 10.3903230000 49.5580880000
6         1   3 -0.05999999999999999778 21.1944910000  9.5249280000 51.7022880000
7         1   3  0.12149999999999999689 22.1054770000  9.2972230000 50.4991390000
8         1   3 -0.17999999999999999334 21.5504340000 10.8225890000 52.4421430000
9         1   3 -0.17999999999999999334 19.7104820000  9.4849700000 51.3060050000
10        1   4  0.64670000000000005258 22.6345230000 10.3959890000 48.4431660000
11        1   3  0.08999999999999999667 22.2556640000 11.6255070000 47.5955780000
12        1   5  0.05999999999999999778 21.3954910000  8.6752520000 52.3738330000
13        1   5  0.02999999999999999889 21.8702360000  8.3553270000 49.9911470000
14        1   5  0.02999999999999999889 23.1602700000  9.3002990000 50.7920050000
15        1   5  0.05999999999999999778 21.3798340000 11.6938440000 51.8012600000
16        1   5  0.05999999999999999778 20.9352020000 10.9351200000 53.3422310000
17        1   5  0.05999999999999999778 22.6042330000 10.8316780000 52.7491460000
18        1   5  0.05999999999999999778 19.4570270000  8.5493600000 50.7933520000
19        1   5  0.05999999999999999778 19.0723630000  9.5698670000 52.1923980000
20        1   5  0.05999999999999999778 19.4681760000 10.3163480000 50.6343150000
21        1   5  0.14999999999999999445 21.1934480000 11.6106070000 47.3367870000
22        2   1 -0.23260000000000000120 23.2704660000 36.2404610000 20.3408400000
23        2   1 -0.23260000000000000120 22.3893220000 34.6037700000 21.4996290000
24        2   1 -0.11999999999999999556 21.1531580000 37.9054030000 21.0999590000
25        2   1 -0.11999999999999999556 20.5371060000 36.0299200000 20.1066000000
26        2   2 -0.36299999999999998934 23.0132730000 36.4901000000 22.5708660000
27        2   3 -0.05999999999999999778 24.7589470000 36.8094690000 24.2069260000
28        2   3  0.12149999999999999689 24.3623980000 36.0691410000 22.9325730000
29        2   3 -0.17999999999999999334 24.8148810000 38.3276730000 23.9834650000
30        2   3 -0.17999999999999999334 23.8438650000 36.4413970000 25.3850890000
31        2   4  0.64670000000000005258 22.4953760000 35.9798650000 21.4424510000
32        2   3  0.08999999999999999667 21.0788750000 36.5515050000 21.2414390000
33        2   5  0.05999999999999999778 25.7760680000 36.4537860000 24.4355670000
34        2   5  0.02999999999999999889 24.3535090000 34.9842510000 23.0858570000
35        2   5  0.02999999999999999889 25.0339400000 36.3150550000 22.1037630000
36        2   5  0.05999999999999999778 23.8229850000 38.7202600000 23.7366090000
37        2   5  0.05999999999999999778 25.1690890000 38.8381030000 24.8864200000
38        2   5  0.05999999999999999778 25.4935800000 38.5859600000 23.1603720000
39        2   5  0.05999999999999999778 23.8204910000 35.3578540000 25.5518390000
40        2   5  0.05999999999999999778 24.1918480000 36.9192470000 26.3074030000
41        2   5  0.05999999999999999778 22.8180740000 36.7778880000 25.1964170000
42        2   5  0.14999999999999999445 20.4356450000 36.3126140000 22.0927230000
43        3   1 -0.23260000000000000120 21.6369470000 29.7158070000 51.5636670000
44        3   1 -0.23260000000000000120 22.0228500000 28.6317740000 49.6998220000
45        3   1 -0.11999999999999999556 20.8299580000 31.9509170000 50.0857180000
46        3   1 -0.11999999999999999556 22.8605320000 31.2193510000 49.6110660000
47        3   2 -0.36299999999999998934 19.9255460000 29.3420870000 50.1378610000
48        3   3 -0.05999999999999999778 17.9344250000 28.0470800000 50.5673500000
49        3   3  0.12149999999999999689 19.4425470000 28.1282610000 50.7871030000
50        3   3 -0.17999999999999999334 17.2033360000 29.2235220000 51.2302970000
51        3   3 -0.17999999999999999334 17.5839210000 27.9272940000 49.0761370000
52        3   4  0.64670000000000005258 21.2335550000 29.6196740000 50.2559000000
53        3   3  0.08999999999999999667 21.5330880000 30.9343640000 49.5105650000
54        3   5  0.05999999999999999778 17.6251250000 27.1172750000 51.0704600000
55        3   5  0.02999999999999999889 19.9591680000 27.2715850000 50.3401480000
56        3   5  0.02999999999999999889 19.6872040000 28.1866330000 51.8525160000
57        3   5  0.05999999999999999778 17.4962460000 30.1721400000 50.7685080000
58        3   5  0.05999999999999999778 16.1180520000 29.1128960000 51.1242250000
59        3   5  0.05999999999999999778 17.4341680000 29.2851910000 52.3016230000
60        3   5  0.05999999999999999778 18.0946910000 27.0757480000 48.6109480000
61        3   5  0.05999999999999999778 16.5052280000 27.7897020000 48.9435250000
62        3   5  0.05999999999999999778 17.8776110000 28.8350220000 48.5368340000
63        3   5  0.14999999999999999445 21.2580840000 30.8576640000 48.4551090000
64        4   1 -0.23260000000000000120 38.6788710000 28.7761930000 53.6636110000
65        4   1 -0.23260000000000000120 40.4955640000 27.5647990000 53.8371520000
66        4   1 -0.11999999999999999556 40.2484190000 31.0483580000 53.2107700000
67        4   1 -0.11999999999999999556 40.7071550000 29.9731690000 55.0862030000
68        4   2 -0.36299999999999998934 40.0718830000 28.6284550000 51.8918400000
69        4   3 -0.05999999999999999778 39.5679160000 27.6981280000 49.7223760000
70        4   3  0.12149999999999999689 39.3648810000 27.5394730000 51.2266760000
71        4   3 -0.17999999999999999334 38.9520660000 29.0060380000 49.2045850000
72        4   3 -0.17999999999999999334 41.0492330000 27.5740020000 49.3335170000
73        4   4  0.64670000000000005258 39.9775390000 28.6919150000 53.2293560000
74        4   3  0.08999999999999999667 40.7834830000 29.9063630000 53.7285810000
75        4   5  0.05999999999999999778 39.0210850000 26.8542220000 49.2727970000
76        4   5  0.02999999999999999889 39.7774440000 26.5911840000 51.5887540000
77        4   5  0.02999999999999999889 38.3052720000 27.6022890000 51.4943540000
78        4   5  0.05999999999999999778 39.4583200000 29.8729460000 49.6417320000
79        4   5  0.05999999999999999778 39.0438250000 29.0709890000 48.1143130000
80        4   5  0.05999999999999999778 37.8865790000 29.0746310000 49.4592600000
81        4   5  0.05999999999999999778 41.4801890000 26.6309510000 49.6903770000
82        4   5  0.05999999999999999778 41.1663530000 27.6101610000 48.2449070000
83        4   5  0.05999999999999999778 41.6310970000 28.3971740000 49.7635080000
84        4   5  0.14999999999999999445 41.8320660000 29.8309010000 53.4281230000
85        5   1 -0.23260000000000000120 10.3647530000 31.7937310000  7.0536310000
86        5   1 -0.23260000000000000120  8.8265550000 30.3612760000  7.6700620000
87        5   1 -0.11999999999999999556 12.0069670000 30.9148740000  9.1421780000
88        5   1 -0.11999999999999999556 10.0090060000 31.6148710000  9.7761130000
89        5   2 -0.36299999999999998934 10.8441200000 29.5868220000  7.0183280000
90        5   3 -0.05999999999999999778 11.4168250000 28.2562220000  5.0876340000
91        5   3  0.12149999999999999689 10.5252720000 29.3794430000  5.6099570000
92        5   3 -0.17999999999999999334 12.9026410000 28.6385070000  5.1525600000
93        5   3 -0.17999999999999999334 11.1390520000 26.9288200000  5.8099650000
94        5   4  0.64670000000000005258 10.1915780000 30.5725040000  7.6543290000
95        5   3  0.08999999999999999667 10.6745750000 30.6274060000  9.1162980000
96        5   5  0.05999999999999999778 11.1335930000 28.1393600000  4.0295950000
97        5   5  0.02999999999999999889  9.4642070000 29.1169810000  5.5337000000
98        5   5  0.02999999999999999889 10.7089860000 30.3158650000  5.0735500000
99        5   5  0.05999999999999999778 13.2216550000 28.7806380000  6.1903220000
100       5   5  0.05999999999999999778 13.5235670000 27.8515990000  4.7092130000
101       5   5  0.05999999999999999778 13.0995820000 29.5715730000  4.6090270000
102       5   5  0.05999999999999999778 10.0801490000 26.6511780000  5.7462730000
103       5   5  0.05999999999999999778 11.7294560000 26.1186550000  5.3682050000
104       5   5  0.05999999999999999778 11.4071930000 27.0031460000  6.8699860000
105       5   5  0.14999999999999999445 10.5015390000 29.6735900000  9.6220550000
106       6   1 -0.23260000000000000120 43.8523700000  4.5718660000 36.5760190000
107       6   1 -0.23260000000000000120 43.9206810000  5.9070210000 38.3111440000
108       6   1 -0.11999999999999999556 41.0852510000  4.9522900000 36.4039370000
109       6   1 -0.11999999999999999556 41.7913960000  4.2133350000 38.3632790000
110       6   2 -0.36299999999999998934 43.2043510000  6.7217160000 36.3316880000
111       6   3 -0.05999999999999999778 44.2168440000  8.3909100000 34.9122820000
112       6   3  0.12149999999999999689 44.4889680000  7.2193020000 35.8517460000
113       6   3 -0.17999999999999999334 43.4237070000  7.9489030000 33.6739080000
114       6   3 -0.17999999999999999334 43.5296450000  9.5555260000 35.6419010000
115       6   4  0.64670000000000005258 43.2272280000  5.6531150000 37.1437500000
116       6   3  0.08999999999999999667 41.7804980000  5.2879840000 37.5275540000
117       6   5  0.05999999999999999778 45.2131120000  8.7282210000 34.5851830000
118       6   5  0.02999999999999999889 45.0817460000  7.5306380000 36.7190670000
119       6   5  0.02999999999999999889 45.0023470000  6.4035580000 35.3327330000
120       6   5  0.05999999999999999778 42.4291810000  7.5896110000 33.9580680000
121       6   5  0.05999999999999999778 43.2982520000  8.7853940000 32.9768600000
122       6   5  0.05999999999999999778 43.9350410000  7.1373890000 33.1402340000
123       6   5  0.05999999999999999778 44.1081330000  9.8791200000 36.5154320000
124       6   5  0.05999999999999999778 43.4152020000 10.4155890000 34.9731030000
125       6   5  0.05999999999999999778 42.5320090000  9.2600140000 35.9860900000
126       6   5  0.14999999999999999445 41.2830280000  6.1265170000 38.0224100000
127       7   1 -0.23260000000000000120  7.0448350000 11.3181160000 23.2723140000
128       7   1 -0.23260000000000000120  8.3109720000 10.4072170000 24.8102110000
129       7   1 -0.11999999999999999556  6.4536560000 13.4230750000 25.0190080000
130       7   1 -0.11999999999999999556  5.9891160000 11.4130860000 25.8113870000
131       7   2 -0.36299999999999998934  8.8432880000 12.4565630000 24.0279540000
132       7   3 -0.05999999999999999778 10.7678230000 13.1478520000 22.7456310000
133       7   3  0.12149999999999999689  9.7546360000 12.0291470000 22.9720470000
134       7   3 -0.17999999999999999334 10.0885800000 14.4326290000 22.2496650000
135       7   3 -0.17999999999999999334 11.6210820000 13.4026370000 23.9978100000
136       7   4  0.64670000000000005258  7.8421480000 11.6211670000 24.3468720000
137       7   3  0.08999999999999999667  7.0002020000 12.2580180000 25.4690140000
138       7   5  0.05999999999999999778 11.4286780000 12.7734790000 21.9478600000
139       7   5  0.02999999999999999889 10.2448150000 11.1042450000 23.2958400000
140       7   5  0.02999999999999999889  9.1680260000 11.8342290000 22.0685740000
141       7   5  0.05999999999999999778  9.4079570000 14.8299070000 23.0098250000
142       7   5  0.05999999999999999778 10.8357560000 15.2023090000 22.0246070000
143       7   5  0.05999999999999999778  9.5053360000 14.2502160000 21.3378660000
144       7   5  0.05999999999999999778 12.1178290000 12.4862530000 24.3382550000
145       7   5  0.05999999999999999778 12.3939930000 14.1511610000 23.7918610000
146       7   5  0.05999999999999999778 10.9989050000 13.7764590000 24.8189200000
147       7   5  0.14999999999999999445  7.6138350000 12.4642280000 26.3501660000
148       8   1 -0.23260000000000000120 47.0959820000 23.0634330000 54.1478950000
149       8   1 -0.23260000000000000120 47.2013880000 25.0929340000 53.3305950000
150       8   1 -0.11999999999999999556 44.3221650000 23.0683430000 53.7774960000
151       8   1 -0.11999999999999999556 45.0881860000 24.7367420000 55.0076890000
152       8   2 -0.36299999999999998934 46.4240150000 23.4259240000 52.0222080000
153       8   3 -0.05999999999999999778 47.3832900000 22.4869300000 50.0161800000
154       8   3  0.12149999999999999689 47.6907890000 23.0673340000 51.3938190000
155       8   3 -0.17999999999999999334 46.5598380000 21.1948980000 50.1190600000
156       8   3 -0.17999999999999999334 46.7070870000 23.5210530000 49.1028030000
157       8   4  0.64670000000000005258 46.4780120000 23.9176820000 53.2700600000
158       8   3  0.08999999999999999667 45.0454590000 24.2235550000 53.7474350000
159       8   5  0.05999999999999999778 48.3673620000 22.2390970000 49.5878070000
160       8   5  0.02999999999999999889 48.3047700000 23.9718030000 51.3194930000
161       8   5  0.02999999999999999889 48.1962320000 22.3345520000 52.0309430000
162       8   5  0.05999999999999999778 45.5764980000 21.3954150000 50.5569610000
163       8   5  0.05999999999999999778 46.4083700000 20.7535170000 49.1273080000
164       8   5  0.05999999999999999778 47.0627970000 20.4492010000 50.7481810000
165       8   5  0.05999999999999999778 47.3068560000 24.4351650000 49.0185750000
166       8   5  0.05999999999999999778 46.5672170000 23.1129690000 48.0958280000
167       8   5  0.05999999999999999778 45.7217810000 23.7966770000 49.4955800000
168       8   5  0.14999999999999999445 44.5550650000 24.9388690000 53.0815990000
169       9   1 -0.23260000000000000120 27.3831960000 49.1996300000 54.2565780000
170       9   1 -0.23260000000000000120 25.8058620000 47.9553720000 53.3837650000
171       9   1 -0.11999999999999999556 26.1678520000 51.4790270000 53.1802090000
172       9   1 -0.11999999999999999556 26.6610090000 49.9143160000 51.6996030000
173       9   2 -0.36299999999999998934 25.2439090000 49.5279110000 54.9024600000
174       9   3 -0.05999999999999999778 24.3388270000 49.2504180000 57.1227960000
175       9   3  0.12149999999999999689 25.3064380000 48.6812620000 56.0888210000
176       9   3 -0.17999999999999999334 24.7514510000 50.6618450000 57.5650860000
177       9   3 -0.17999999999999999334 22.8867000000 49.2131770000 56.6219400000
178       9   4  0.64670000000000005258 26.0625790000 49.2166360000 53.8852270000
179       9   3  0.08999999999999999667 25.8457150000 50.2283260000 52.7436900000
180       9   5  0.05999999999999999778 24.4224590000 48.5758680000 57.9895780000
181       9   5  0.02999999999999999889 25.0279700000 47.6622610000 55.7978660000
182       9   5  0.02999999999999999889 26.3357000000 48.6858960000 56.4616030000
183       9   5  0.05999999999999999778 24.6977860000 51.3626840000 56.7255230000
184       9   5  0.05999999999999999778 24.0886410000 51.0273200000 58.3578290000
185       9   5  0.05999999999999999778 25.7792760000 50.6757670000 57.9500620000
186       9   5  0.05999999999999999778 22.5909620000 48.2003310000 56.3234430000
187       9   5  0.05999999999999999778 22.1997460000 49.5500890000 57.4059550000
188       9   5  0.05999999999999999778 22.7604810000 49.8726630000 55.7557900000
189       9   5  0.14999999999999999445 24.8057920000 50.2209150000 52.4060460000
190      10   1 -0.23260000000000000120 45.4179190000  2.9222540000 37.0253550000
191      10   1 -0.23260000000000000120 43.2766920000  2.5949950000 37.3509480000
192      10   1 -0.11999999999999999556 45.8426380000  0.1572840000 37.1017490000
193      10   1 -0.11999999999999999556 44.8387590000  0.9827710000 38.8890700000
194      10   2 -0.36299999999999998934 44.2446770000  1.7403580000 35.4995410000
195      10   3 -0.05999999999999999778 43.8816540000  2.3158930000 33.1837170000
196      10   3  0.12149999999999999689 43.9751100000  2.8615480000 34.6059830000
197      10   3 -0.17999999999999999334 45.2112790000  1.6975290000 32.7279450000
198      10   3 -0.17999999999999999334 42.7134970000  1.3296470000 33.0299450000
199      10   4  0.64670000000000005258 44.4072530000  2.0217760000 36.8019430000
200      10   3  0.08999999999999999667 44.6860890000  0.7119220000 37.5636430000
201      10   5  0.05999999999999999778 43.6744850000  3.1970030000 32.5559830000
202      10   5  0.02999999999999999889 43.0350400000  3.3301440000 34.9178280000
203      10   5  0.02999999999999999889 44.7923340000  3.5834620000 34.7026950000
204      10   5  0.05999999999999999778 45.4631420000  0.8249350000 33.3395540000
205      10   5  0.05999999999999999778 45.1488260000  1.3750200000 31.6822790000
206      10   5  0.05999999999999999778 46.0362450000  2.4167330000 32.8116290000
207      10   5  0.05999999999999999778 41.7636000000  1.7810920000 33.3402860000
208      10   5  0.05999999999999999778 42.6128970000  1.0108820000 31.9866980000
209      10   5  0.05999999999999999778 42.8803230000  0.4358470000 33.6417940000
210      10   5  0.14999999999999999445 43.8668150000 -0.0000030000 37.4315470000
211      11   1 -0.23260000000000000120 12.6536130000 47.4117820000 49.1124020000
212      11   1 -0.23260000000000000120 10.8007700000 48.3354160000 49.8278300000
213      11   1 -0.11999999999999999556 12.1237320000 45.1557410000 50.6810920000
214      11   1 -0.11999999999999999556 12.1769370000 47.0610410000 51.7994470000
215      11   2 -0.36299999999999998934 10.6833150000 46.3965380000 48.6780200000
216      11   3 -0.05999999999999999778  9.7195160000 45.9657430000 46.5074040000
217      11   3  0.12149999999999999689 10.5002550000 46.9709630000 47.3495990000
218      11   3 -0.17999999999999999334 10.5025560000 44.6582800000 46.3192740000
219      11   3 -0.17999999999999999334  8.3175680000 45.7112790000 47.0824750000
220      11   4  0.64670000000000005258 11.3920300000 47.1154560000 49.5627560000
221      11   3  0.08999999999999999667 11.4720120000 46.3350310000 50.8887250000
222      11   5  0.05999999999999999778  9.6067740000 46.4483460000 45.5236830000
223      11   5  0.02999999999999999889  9.9533820000 47.9144040000 47.4564180000
224      11   5  0.02999999999999999889 11.4878000000 47.1682270000 46.9204020000
225      11   5  0.05999999999999999778 10.6511480000 44.1534840000 47.2794940000
226      11   5  0.05999999999999999778  9.9603550000 43.9756130000 45.6549590000
227      11   5  0.05999999999999999778 11.4911910000 44.8439480000 45.8800090000
228      11   5  0.05999999999999999778  7.7558570000 46.6458010000 47.1989530000
229      11   5  0.05999999999999999778  7.7443390000 45.0507780000 46.4227460000
230      11   5  0.05999999999999999778  8.3852150000 45.2312750000 48.0653740000
231      11   5  0.14999999999999999445 10.4731820000 46.1304140000 51.2836500000
232      12   1 -0.23260000000000000120 43.1348070000 32.4877890000 14.7874400000
233      12   1 -0.23260000000000000120 42.7062460000 32.3296530000 12.6451760000
234      12   1 -0.11999999999999999556 44.6980030000 34.7566890000 14.2977550000
235      12   1 -0.11999999999999999556 45.3026110000 32.9609610000 13.1604220000
236      12   2 -0.36299999999999998934 42.0514920000 34.1812500000 13.7578270000
237      12   3 -0.05999999999999999778 39.8190780000 34.9724200000 14.2230660000
238      12   3  0.12149999999999999689 40.7046120000 33.7357090000 14.0978070000
239      12   3 -0.17999999999999999334 40.2839640000 35.8860040000 15.3664170000
240      12   3 -0.17999999999999999334 39.7164670000 35.7339770000 12.8924940000
241      12   4  0.64670000000000005258 42.9981510000 33.2361830000 13.6457510000
242      12   3  0.08999999999999999667 44.3367240000 33.9114590000 13.2909590000
243      12   5  0.05999999999999999778 38.8207100000 34.5808860000 14.4746300000
244      12   5  0.02999999999999999889 40.3526190000 33.0699310000 13.3019430000
245      12   5  0.02999999999999999889 40.7524520000 33.1828920000 15.0414560000
246      12   5  0.05999999999999999778 41.2831660000 36.2847110000 15.1625800000
247      12   5  0.05999999999999999778 39.5973440000 36.7315550000 15.4885950000
248      12   5  0.05999999999999999778 40.3259670000 35.3436160000 16.3197680000
249      12   5  0.05999999999999999778 39.3677270000 35.0819730000 12.0827480000
250      12   5  0.05999999999999999778 39.0149390000 36.5707750000 12.9803770000
251      12   5  0.05999999999999999778 40.6926900000 36.1402680000 12.6044220000
252      12   5  0.14999999999999999445 44.2555700000 34.4757830000 12.3579800000
253      13   1 -0.23260000000000000120 17.8103620000  2.6763700000 34.6961670000
254      13   1 -0.23260000000000000120 18.0608170000  1.4828910000 36.5157400000
255      13   1 -0.11999999999999999556 15.4660330000  1.2669160000 34.1055390000
256      13   1 -0.11999999999999999556 17.2556310000 -0.0000670000 34.3808740000
257      13   2 -0.36299999999999998934 16.2193270000  2.7697460000 36.2965950000
258      13   3 -0.05999999999999999778 15.5526760000  4.7090590000 37.5696650000
259      13   3  0.12149999999999999689 16.7359710000  3.9606070000 36.9622570000
260      13   3 -0.17999999999999999334 14.5772840000  5.1956350000 36.4880640000
261      13   3 -0.17999999999999999334 14.8404520000  3.8699840000 38.6418630000
262      13   4  0.64670000000000005258 17.1075080000  1.9932940000 35.6561780000
263      13   3  0.08999999999999999667 16.3626400000  0.8031540000 35.0218330000
264      13   5  0.05999999999999999778 15.9967840000  5.5901010000 38.0594160000
265      13   5  0.02999999999999999889 17.4464460000  3.6415540000 37.7329660000
266      13   5  0.02999999999999999889 17.2553020000  4.5732320000 36.2183790000
267      13   5  0.05999999999999999778 14.1244900000  4.3474960000 35.9640810000
268      13   5  0.05999999999999999778 13.7721050000  5.7909370000 36.9337470000
269      13   5  0.05999999999999999778 15.0862670000  5.8194450000 35.7419930000
270      13   5  0.05999999999999999778 15.5374150000  3.5392140000 39.4211270000
271      13   5  0.05999999999999999778 14.0459830000  4.4517960000 39.1218720000
272      13   5  0.05999999999999999778 14.3841120000  2.9796070000 38.1945900000
273      13   5  0.14999999999999999445 15.8335450000  0.2220650000 35.7820250000
274      14   1 -0.23260000000000000120 36.2139580000 38.0430740000 18.8685060000
275      14   1 -0.23260000000000000120 34.5292030000 37.0631620000 17.8688370000
276      14   1 -0.11999999999999999556 35.7843530000 40.3367280000 17.3238780000
277      14   1 -0.11999999999999999556 36.0928150000 38.4863400000 16.1557040000
278      14   2 -0.36299999999999998934 34.1510700000 38.9426070000 19.0603950000
279      14   3 -0.05999999999999999778 32.8765120000 39.2322640000 21.0895980000
280      14   3  0.12149999999999999689 33.8183330000 38.3031330000 20.3286750000
281      14   3 -0.17999999999999999334 33.5550100000 40.5665290000 21.4322060000
282      14   3 -0.17999999999999999334 31.5552440000 39.4436070000 20.3342800000
283      14   4  0.64670000000000005258 35.0121420000 38.2975530000 18.2576870000
284      14   3  0.08999999999999999667 35.2315430000 39.1375300000 16.9849120000
285      14   5  0.05999999999999999778 32.6557500000 38.7027090000 22.0298950000
286      14   5  0.02999999999999999889 33.3427210000 37.3399750000 20.1126170000
287      14   5  0.02999999999999999889 34.7466990000 38.1352390000 20.8839370000
288      14   5  0.05999999999999999778 33.8068110000 41.1189390000 20.5209640000
289      14   5  0.05999999999999999778 32.8908570000 41.1929510000 22.0386930000
290      14   5  0.05999999999999999778 34.4824500000 40.4098230000 21.9980010000
291      14   5  0.05999999999999999778 31.0658050000 38.4890530000 20.1069180000
292      14   5  0.05999999999999999778 30.8622220000 40.0466170000 20.9311020000
293      14   5  0.05999999999999999778 31.7314300000 39.9683640000 19.3884160000
294      14   5  0.14999999999999999445 34.2869110000 39.3107360000 16.4622580000
295      15   1 -0.23260000000000000120 20.2583080000 49.8427480000 40.4771720000
296      15   1 -0.23260000000000000120 21.8168880000 48.5761280000 41.3515110000
297      15   1 -0.11999999999999999556 18.4198450000 47.7501440000 40.7461450000
298      15   1 -0.11999999999999999556 20.2321070000 47.2385360000 39.5895640000
299      15   2 -0.36299999999999998934 19.9947520000 49.0775120000 42.5858290000
300      15   3 -0.05999999999999999778 19.8321230000 50.3979370000 44.5998040000
301      15   3  0.12149999999999999689 20.5314170000 50.2601900000 43.2502380000
302      15   3 -0.17999999999999999334 18.3236420000 50.6314540000 44.4325970000
303      15   3 -0.17999999999999999334 20.1239390000 49.1987830000 45.5151140000
304      15   4  0.64670000000000005258 20.4548430000 48.8063000000 41.3543110000
305      15   3  0.08999999999999999667 19.7627850000 47.5322240000 40.8333120000
306      15   5  0.05999999999999999778 20.2747520000 51.2970150000 45.0570380000
307      15   5  0.02999999999999999889 21.6120130000 50.1249200000 43.3709620000
308      15   5  0.02999999999999999889 20.3414920000 51.1295780000 42.6126940000
309      15   5  0.05999999999999999778 17.8463570000 49.7642110000 43.9646130000
310      15   5  0.05999999999999999778 17.8485350000 50.7987010000 45.4060620000
311      15   5  0.05999999999999999778 18.1220230000 51.5074080000 43.8026120000
312      15   5  0.05999999999999999778 21.2019910000 49.0463730000 45.6454680000
313      15   5  0.05999999999999999778 19.6808200000 49.3526520000 46.5050960000
314      15   5  0.05999999999999999778 19.6998160000 48.2801070000 45.0941350000
315      15   5  0.14999999999999999445 19.9482230000 46.6853840000 41.4996230000
316      16   1 -0.23260000000000000120 31.7396980000 19.6622180000 28.7379730000
317      16   1 -0.23260000000000000120 33.8284610000 20.3061710000 28.5952830000
318      16   1 -0.11999999999999999556 32.0004870000 19.4636800000 31.5171550000
319      16   1 -0.11999999999999999556 33.4670910000 18.2743210000 30.3690190000