Generated by pymatgen.io.lammps.data.LammpsData

16358  atoms
15295  bonds
26440  angles
26265  dihedrals

   16  atom types
   15  bond types
   22  angle types
   19  dihedral types

-0.2500000000 60.2500000000  xlo xhi
-0.2500000000 60.2500000000  ylo yhi
-0.2500000000 60.2500000000  zlo zhi

Masses

1   14.01000
2   32.06000
3   16.00000
4   12.01000
5   19.00000
6   16.00000
7   12.01000
8   12.01000
9    1.00800
10  14.00670
11  12.01070
12  12.01070
13   1.00794
14  32.06000
15  32.06000
16   6.94100

Pair Coeffs

1       0.17  3.249999
2       0.25  3.549340
3       0.21  2.959566
4      0.066  3.499450
5      0.053  2.948875
6       0.14  2.900000
7      0.066  3.500000
8      0.066  3.500000
9       0.03  2.500000
10    0.1700  3.280000
11    0.0660  3.300000
12    0.0660  3.300000
13    0.0150  2.500000
14  0.344001  3.590322
15  0.344001  3.590322
16  0.165057  1.506000

Bond Coeffs

1   441.80  1.323
2   235.40  1.818
3   637.10  1.442
4   372.00  1.570
5   320.00  1.410
6   320.00  1.380
7   268.00  1.529
8   340.00  1.090
9   340.00  1.090
10  650.00  1.157
11  268.00  1.529
12  390.00  1.470
13  340.00  1.090
14  157.87  2.133
15  154.36  2.117


Angle Coeffs

1    93.30  107.10
2    82.90  111.80
3   104.00  102.60
4   115.80  118.50
5    94.30  113.60
6    97.50  100.20
7    80.20  125.60
8    60.00  109.50
9    50.00  109.50
10   35.00  109.50
11   37.50  110.70
12   33.00  107.80
13   92.60  111.55
14   35.00  109.50
15   33.00  109.50
16   58.35  112.70
17   37.50  110.70
18   35.00  108.50
19   33.00  107.80
20  150.00  180.00
21   73.56  112.74
22   73.56  112.74


Dihedral Coeffs

1 1 0.173400000 3 0.000000000
2 1 0.158000000 3 0.000000000
3 1 -0.001800000 3 0.000000000
4 3 3.916460000 1 0.000000000 -1.245000000 2 180.000000000 -0.381800000 3 0.000000000
5 3 0.062500000 1 0.000000000 -0.011000000 2 180.000000000 0.280500000 3 0.000000000
6 3 0.062500000 1 0.000000000 -0.011000000 2 180.000000000 0.280500000 3 0.000000000
7 1 0.370500000 3 0.000000000
8 1 0.370500000 3 0.000000000
9 3 -0.533500000 1 0.000000000 -0.783500000 2 180.000000000 0.337500000 3 0.000000000
10 1 0.370500000 3 0.000000000
11 3 1.119000000 1 0.000000000 -1.163500000 2 180.000000000 -0.341500000 3 0.000000000
12 1 0.234000000 3 0.000000000
13 1 0.150000000 3 0.000000000
14 1 0.150000000 3 0.000000000
15 1 0.150000000 3 0.000000000
16 1 0.000000000 1 0.000000000
17 1 0.000000000 1 0.000000000
18 4 5.431700000 1 0.000000000 -3.590000000 2 180.000000000 1.055600000 3 0.000000000 0.058320000 4 180.000000000
19 4 5.431700000 1 0.000000000 -3.590000000 2 180.000000000 1.055600000 3 0.000000000 0.058320000 4 180.000000000


Atoms

1         1   1 -0.47774158523344190108 50.6417910000 32.9339970000 55.3306290000
2         1   2  0.73832790445168294813 51.4575270000 33.2478240000 56.6985760000
3         1   3 -0.38364096996018820507 52.5131700000 34.2598920000 56.5485180000
4         1   3 -0.38364096996018820507 50.6681680000 33.2456630000 57.9407650000
5         1   4  0.25334781035106768154 52.3879610000 31.6059880000 56.7288810000
6         1   5 -0.11581614187477379252 53.1454810000 31.4261850000 55.6333630000
7         1   5 -0.11581614187477379252 51.5542720000 30.5582430000 56.8453920000
8         1   5 -0.11581614187477379252 53.2079080000 31.6010290000 57.8025380000
9         1   2  0.73832790445168294813 49.3579950000 33.7678910000 54.8435660000
10        1   3 -0.38364096996018820507 49.2426720000 33.6516400000 53.3843610000
11        1   3 -0.38364096996018820507 49.1595930000 35.0744290000 55.4873420000
12        1   4  0.25334781035106768154 47.8938520000 32.7349860000 55.4499860000
13        1   5 -0.11581614187477379252 47.9468410000 31.4785520000 54.9656040000
14        1   5 -0.11581614187477379252 47.8484070000 32.6650750000 56.7888770000
15        1   5 -0.11581614187477379252 46.7378960000 33.2907950000 55.0229860000
16        2   1 -0.47774158523344190108 43.5771050000 28.0884920000 55.1644580000
17        2   2  0.73832790445168294813 43.6234030000 29.4468920000 56.0520380000
18        2   3 -0.38364096996018820507 42.3946950000 29.7059140000 56.8164740000
19        2   3 -0.38364096996018820507 44.9144170000 29.7679410000 56.6815890000
20        2   4  0.25334781035106768154 43.5119730000 30.6226070000 54.5797860000
21        2   5 -0.11581614187477379252 42.3904310000 30.4399240000 53.8620820000
22        2   5 -0.11581614187477379252 44.5675380000 30.4988180000 53.7570820000
23        2   5 -0.11581614187477379252 43.5006340000 31.8901310000 55.0470460000
24        2   2  0.73832790445168294813 43.9781820000 26.6382900000 55.7273000000
25        2   3 -0.38364096996018820507 43.2859490000 25.6140070000 54.9349940000
26        2   3 -0.38364096996018820507 44.0347330000 26.5111870000 57.1906870000
27        2   4  0.25334781035106768154 45.7771570000 26.4258220000 55.1824130000
28        2   5 -0.11581614187477379252 45.9019030000 26.5484180000 53.8461990000
29        2   5 -0.11581614187477379252 46.5872640000 27.3244290000 55.7619070000
30        2   5 -0.11581614187477379252 46.2125450000 25.1923150000 55.5235630000
31        3   1 -0.47774158523344190108 39.3272580000 28.6351900000 21.8297410000
32        3   2  0.73832790445168294813 38.9493740000 29.6975370000 22.9975650000
33        3   3 -0.38364096996018820507 37.6138180000 30.2952220000 22.8552780000
34        3   3 -0.38364096996018820507 39.4238000000 29.3703510000 24.3518160000
35        3   4  0.25334781035106768154 40.1280520000 31.0442400000 22.3980990000
36        3   5 -0.11581614187477379252 39.8546370000 31.4433000000 21.1441760000
37        3   5 -0.11581614187477379252 41.4111120000 30.6470820000 22.4471380000
38        3   5 -0.11581614187477379252 39.9976610000 32.1163370000 23.2096920000
39        3   2  0.73832790445168294813 38.9510050000 27.0743700000 21.8846600000
40        3   3 -0.38364096996018820507 38.8800550000 26.5551110000 20.5130090000
41        3   3 -0.38364096996018820507 37.9175310000 26.6974750000 22.8597170000
42        3   4  0.25334781035106768154 40.5221560000 26.2557640000 22.5477740000
43        3   5 -0.11581614187477379252 41.5861110000 26.5356010000 21.7694720000
44        3   5 -0.11581614187477379252 40.8044260000 26.6495170000 23.7987190000
45        3   5 -0.11581614187477379252 40.3645680000 24.9131890000 22.5598390000
46        4   1 -0.47774158523344190108  4.9984740000 17.4709650000 33.8819250000
47        4   2  0.73832790445168294813  5.0807380000 18.6763400000 32.7977230000
48        4   3 -0.38364096996018820507  6.2852620000 19.5104290000 32.9185600000
49        4   3 -0.38364096996018820507  4.5787310000 18.3716810000 31.4481690000
50        4   4  0.25334781035106768154  3.7151250000 19.7143370000 33.5850690000
51        4   5 -0.11581614187477379252  3.9993010000 20.0579290000 34.8529480000
52        4   5 -0.11581614187477379252  2.5307770000 19.0790870000 33.5724830000
53        4   5 -0.11581614187477379252  3.5794490000 20.8524410000 32.8699540000
54        4   2  0.73832790445168294813  5.6592200000 16.0233280000 33.6616950000
55        4   3 -0.38364096996018820507  5.9282410000 15.4203320000 34.9732270000
56        4   3 -0.38364096996018820507  6.6708510000 15.9347950000 32.5988600000
57        4   4  0.25334781035106768154  4.2276660000 14.9687330000 33.0160650000
58        4   5 -0.11581614187477379252  3.1901460000 14.9721170000 33.8760670000
59        4   5 -0.11581614187477379252  3.7844740000 15.3981000000 31.8249290000
60        4   5 -0.11581614187477379252  4.6360370000 13.6882310000 32.8710280000
61        5   1 -0.47774158523344190108 40.5119060000 13.0487060000 38.3297590000
62        5   2  0.73832790445168294813 39.7919380000 13.8985990000 39.5106560000
63        5   3 -0.38364096996018820507 38.4233010000 14.3293540000 39.1905570000
64        5   3 -0.38364096996018820507 40.0814530000 13.4701720000 40.8886100000
65        5   4  0.25334781035106768154 40.8366750000 15.4521010000 39.2710550000
66        5   5 -0.11581614187477379252 40.7158390000 15.9650300000 38.0346770000
67        5   5 -0.11581614187477379252 42.1392520000 15.2233170000 39.5104970000
68        5   5 -0.11581614187477379252 40.4149800000 16.3883630000 40.1489290000
69        5   2  0.73832790445168294813 40.3710430000 11.4574900000 38.1596590000
70        5   3 -0.38364096996018820507 40.6051460000 11.1083880000 36.7527430000
71        5   3 -0.38364096996018820507 39.2602380000 10.8300410000 38.8899150000
72        5   4  0.25334781035106768154 41.9171420000 10.7753980000 39.0097680000
73        5   5 -0.11581614187477379252 43.0399830000 11.2868640000 38.4678330000
74        5   5 -0.11581614187477379252 41.9277540000 11.0437610000 40.3240930000
75        5   5 -0.11581614187477379252 41.9636320000  9.4327970000 38.8589500000
76        6   1 -0.47774158523344190108 32.8881490000 26.6471890000 12.4109890000
77        6   2  0.73832790445168294813 34.3723740000 25.9908170000 12.3730090000
78        6   3 -0.38364096996018820507 35.4642510000 26.9742790000 12.4153020000
79        6   3 -0.38364096996018820507 34.5440270000 24.7294250000 13.1116230000
80        6   4  0.25334781035106768154 34.2869760000 25.4680380000 10.5614740000
81        6   5 -0.11581614187477379252 34.0957470000 26.5110970000  9.7357710000
82        6   5 -0.11581614187477379252 33.3116370000 24.5693980000 10.3434370000
83        6   5 -0.11581614187477379252 35.4616890000 24.8893060000 10.2295160000
84        6   2  0.73832790445168294813 32.1059140000 27.0118350000 13.7659370000
85        6   3 -0.38364096996018820507 31.1374930000 28.0784500000 13.4820640000
86        6   3 -0.38364096996018820507 32.9278760000 27.0802840000 14.9827150000
87        6   4  0.25334781035106768154 30.9870010000 25.5145180000 14.0565030000
88        6   5 -0.11581614187477379252 30.1795640000 25.2941910000 13.0003010000
89        6   5 -0.11581614187477379252 31.6925760000 24.3963850000 14.2834970000
90        6   5 -0.11581614187477379252 30.2014620000 25.7366470000 15.1340340000
91        7   1 -0.47774158523344190108 35.9827640000 56.3601490000 16.1729430000
92        7   2  0.73832790445168294813 35.7465580000 55.3449920000 14.9284130000
93        7   3 -0.38364096996018820507 34.4020320000 55.4216460000 14.3388750000
94        7   3 -0.38364096996018820507 36.8914540000 55.1472850000 14.0249470000
95        7   4  0.25334781035106768154 35.7034760000 53.7806290000 15.9834780000
96        7   5 -0.11581614187477379252 34.7212820000 53.8080940000 16.9004680000
97        7   5 -0.11581614187477379252 36.8699890000 53.5696010000 16.6168000000
98        7   5 -0.11581614187477379252 35.4794330000 52.7249900000 15.1707620000
99        7   2  0.73832790445168294813 36.4687540000 57.8821870000 16.0057440000
100       7   3 -0.38364096996018820507 36.0174710000 58.6547210000 17.1700570000
101       7   3 -0.38364096996018820507 36.3365160000 58.4534940000 14.6577910000
102       7   4  0.25334781035106768154 38.3382460000 57.7903190000 16.2794470000
103       7   5 -0.11581614187477379252 38.6316890000 57.2503050000 17.4787540000
104       7   5 -0.11581614187477379252 38.9496210000 57.0626760000 15.3326960000
105       7   5 -0.11581614187477379252 38.8633570000 59.0356800000 16.2508160000
106       8   1 -0.47774158523344190108 30.3218710000 26.4952360000 45.6502990000
107       8   2  0.73832790445168294813 31.0246360000 25.5979370000 44.4943730000
108       8   3 -0.38364096996018820507 31.5480980000 26.3789190000 43.3642230000
109       8   3 -0.38364096996018820507 31.8019700000 24.4365970000 44.9560710000
110       8   4  0.25334781035106768154 29.4149220000 24.8584780000 43.8430100000
111       8   5 -0.11581614187477379252 28.5600480000 25.7982590000 43.4044550000
112       8   5 -0.11581614187477379252 28.7900290000 24.1169540000 44.7736180000
113       8   5 -0.11581614187477379252 29.7086460000 24.0498820000 42.8013890000
114       8   2  0.73832790445168294813 31.1213110000 27.1658560000 46.8717350000
115       8   3 -0.38364096996018820507 30.3681390000 28.3330810000 47.3475590000
116       8   3 -0.38364096996018820507 32.5796320000 27.2570500000 46.7109930000
117       8   4  0.25334781035106768154 30.8960700000 25.9324940000 48.2882230000
118       8   5 -0.11581614187477379252 29.5912180000 25.7121400000 48.5429160000
119       8   5 -0.11581614187477379252 31.4753200000 24.7518360000 48.0234650000
120       8   5 -0.11581614187477379252 31.4560330000 26.4272380000 49.4147920000
121       9   1 -0.47774158523344190108 12.1884220000 52.4713810000 33.4185170000
122       9   2  0.73832790445168294813 11.9685630000 50.9231110000 32.9829560000
123       9   3 -0.38364096996018820507 11.0220190000 50.7410430000 31.8729610000
124       9   3 -0.38364096996018820507 13.1595470000 50.0596830000 33.0295800000
125       9   4  0.25334781035106768154 10.9811080000 50.4469200000 34.5193230000
126       9   5 -0.11581614187477379252  9.8586930000 51.1740710000 34.6525990000
127       9   5 -0.11581614187477379252 11.7069550000 50.5763960000 35.6430520000
128       9   5 -0.11581614187477379252 10.6212060000 49.1494780000 34.4089130000
129       9   2  0.73832790445168294813 13.2649140000 53.4484970000 32.7350320000
130       9   3 -0.38364096996018820507 12.8198910000 54.8374250000 32.9051080000
131       9   3 -0.38364096996018820507 13.7975410000 53.0088190000 31.4374020000
132       9   4  0.25334781035106768154 14.7568940000 53.3555130000 33.8942160000
133       9   5 -0.11581614187477379252 14.4221370000 53.7038600000 35.1522520000
134       9   5 -0.11581614187477379252 15.2902060000 52.1250930000 33.9292220000
135       9   5 -0.11581614187477379252 15.7140440000 54.2119090000 33.4723920000
136      10   1 -0.47774158523344190108 58.1293610000 22.4594900000 26.5359260000
137      10   2  0.73832790445168294813 59.1124490000 21.3129090000 25.9408820000
138      10   3 -0.38364096996018820507 59.9636480000 21.7689690000 24.8324360000
139      10   3 -0.38364096996018820507 59.6890140000 20.3786920000 26.9211560000
140      10   4  0.25334781035106768154 57.7416510000 20.3257000000 25.0991100000
141      10   5 -0.11581614187477379252 57.0779820000 21.0499780000 24.1818900000
142      10   5 -0.11581614187477379252 56.8525830000 19.8446330000 25.9848390000
143      10   5 -0.11581614187477379252 58.3027920000 19.2726000000 24.4657220000
144      10   2  0.73832790445168294813 58.5575230000 23.4957510000 27.6863970000
145      10   3 -0.38364096996018820507 57.7315840000 24.7039830000 27.5676880000
146      10   3 -0.38364096996018820507 60.0015190000 23.6225770000 27.9306210000
147      10   4  0.25334781035106768154 57.8955680000 22.7058390000 29.2726540000
148      10   5 -0.11581614187477379252 56.5673990000 22.4911660000 29.1955500000
149      10   5 -0.11581614187477379252 58.4934150000 21.5346800000 29.5382570000
150      10   5 -0.11581614187477379252 58.1173560000 23.5327900000 30.3188130000
151      11   1 -0.47774158523344190108 19.5039650000 28.4596890000 30.0530860000
152      11   2  0.73832790445168294813 20.4679520000 28.7159620000 28.7723660000
153      11   3 -0.38364096996018820507 21.3711730000 29.8661360000 28.9222700000
154      11   3 -0.38364096996018820507 20.9792810000 27.5144730000 28.0933280000
155      11   4  0.25334781035106768154 19.0944570000 29.3471700000 27.6421730000
156      11   5 -0.11581614187477379252 18.4869690000 30.4399320000 28.1352830000
157      11   5 -0.11581614187477379252 18.1601640000 28.4082450000 27.4143580000
158      11   5 -0.11581614187477379252 19.6414020000 29.6807900000 26.4527920000
159      11   2  0.73832790445168294813 19.9270140000 27.5801930000 31.3291180000
160      11   3 -0.38364096996018820507 19.1463780000 28.0240430000 32.4908820000
161      11   3 -0.38364096996018820507 21.3652760000 27.3150070000 31.4772150000
162      11   4  0.25334781035106768154 19.1853980000 25.8778110000 30.9682070000
163      11   5 -0.11581614187477379252 17.8542050000 25.9548670000 30.7731460000
164      11   5 -0.11581614187477379252 19.7344330000 25.3100790000 29.8838530000
165      11   5 -0.11581614187477379252 19.3988780000 25.0568160000 32.0207660000
166      12   1 -0.47774158523344190108 32.7890970000 42.6014040000 40.3246970000
167      12   2  0.73832790445168294813 31.8344200000 43.5626280000 39.4303650000
168      12   3 -0.38364096996018820507 32.4717160000 44.8199120000 39.0129060000
169      12   3 -0.38364096996018820507 30.9418710000 42.8854010000 38.4759830000
170      12   4  0.25334781035106768154 30.7049870000 44.0647000000 40.8567440000
171      12   5 -0.11581614187477379252 31.3738900000 44.6770460000 41.8486760000
172      12   5 -0.11581614187477379252 30.0498530000 43.0110790000 41.3735260000
173      12   5 -0.11581614187477379252 29.7827630000 44.9317360000 40.3846960000
174      12   2  0.73832790445168294813 33.8112330000 41.5286910000 39.7039990000
175      12   3 -0.38364096996018820507 34.8896950000 41.2867610000 40.6706850000
176      12   3 -0.38364096996018820507 34.1350600000 41.7001700000 38.2804170000
177      12   4  0.25334781035106768154 32.8453980000 39.9030890000 39.7581720000
178      12   5 -0.11581614187477379252 32.4425170000 39.6143030000 41.0113090000
179      12   5 -0.11581614187477379252 31.7618370000 39.9357260000 38.9679750000
180      12   5 -0.11581614187477379252 33.6363160000 38.8904760000 39.3379940000
181      13   1 -0.47774158523344190108 21.1664960000 53.0553040000 25.6801550000
182      13   2  0.73832790445168294813 20.2284280000 51.8478090000 25.1350170000
183      13   3 -0.38364096996018820507 19.1188180000 52.2904380000 24.2782620000
184      13   3 -0.38364096996018820507 20.9186050000 50.5953940000 24.7868270000
185      13   4  0.25334781035106768154 19.4161620000 51.4906060000 26.8008140000
186      13   5 -0.11581614187477379252 18.7592210000 52.5564430000 27.2894340000
187      13   5 -0.11581614187477379252 20.3100950000 51.0851740000 27.7189050000
188      13   5 -0.11581614187477379252 18.5188410000 50.4948920000 26.6321570000
189      13   2  0.73832790445168294813 22.4219760000 53.6473820000 24.8714800000
190      13   3 -0.38364096996018820507 22.6565150000 55.0302340000 25.3059940000
191      13   3 -0.38364096996018820507 22.4781670000 53.3148080000 23.4407140000
192      13   4  0.25334781035106768154 23.9044160000 52.7330690000 25.6095580000
193      13   5 -0.11581614187477379252 23.9771300000 52.9140870000 26.9429770000
194      13   5 -0.11581614187477379252 23.8520700000 51.4143430000 25.3691350000
195      13   5 -0.11581614187477379252 25.0477050000 53.2095850000 25.0679800000
196      14   1 -0.47774158523344190108 18.3434420000 46.0009950000  5.6395030000
197      14   2  0.73832790445168294813 17.1002750000 46.9925520000  5.3130950000
198      14   3 -0.38364096996018820507 17.3939400000 48.4157320000  5.5355820000
199      14   3 -0.38364096996018820507 16.2640580000 46.6276220000  4.1582390000
200      14   4  0.25334781035106768154 16.0746230000 46.4887480000  6.8152510000
201      14   5 -0.11581614187477379252 16.7129270000 46.7254140000  7.9740810000
202      14   5 -0.11581614187477379252 15.7319570000 45.1897190000  6.7767410000
203      14   5 -0.11581614187477379252 14.9355620000 47.2151200000  6.8160870000
204      14   2  0.73832790445168294813 19.4883580000 45.6228100000  4.5779550000
205      14   3 -0.38364096996018820507 20.7048630000 45.2433860000  5.3075060000
206      14   3 -0.38364096996018820507 19.5885420000 46.4999560000  3.4026120000
207      14   4  0.25334781035106768154 18.9111390000 43.9691070000  3.8635030000
208      14   5 -0.11581614187477379252 18.7386390000 43.0499100000  4.8337510000
209      14   5 -0.11581614187477379252 17.7568060000 44.0879190000  3.1904640000
210      14   5 -0.11581614187477379252 19.8439770000 43.4931020000  3.0086830000
211      15   1 -0.47774158523344190108 10.8961430000 15.9049680000 26.3939590000
212      15   2  0.73832790445168294813 10.2347460000 15.4723630000 27.8119140000
213      15   3 -0.38364096996018820507  9.7469060000 14.0860380000 27.8479370000
214      15   3 -0.38364096996018820507 10.8758330000 16.0152760000 29.0203740000
215      15   4  0.25334781035106768154  8.6723980000 16.5100440000 27.6008820000
216      15   5 -0.11581614187477379252  7.9714980000 16.1641300000 26.5075330000
217      15   5 -0.11581614187477379252  8.9475540000 17.8237320000 27.5309200000
218      15   5 -0.11581614187477379252  7.8810420000 16.3119710000 28.6777290000
219      15   2  0.73832790445168294813 12.4398910000 15.6680360000 26.0178640000
220      15   3 -0.38364096996018820507 12.5669570000 15.6000860000 24.5565880000
221      15   3 -0.38364096996018820507 13.1636750000 14.7020820000 26.8568650000
222      15   4  0.25334781035106768154 13.2603950000 17.3243540000 26.4200310000
223      15   5 -0.11581614187477379252 12.6807010000 18.3352200000 25.7431490000
224      15   5 -0.11581614187477379252 13.2008170000 17.6099100000 27.7294160000
225      15   5 -0.11581614187477379252 14.5633000000 17.2848040000 26.0617600000
226      16   1 -0.47774158523344190108  7.6995430000  9.7683020000  6.2029450000
227      16   2  0.73832790445168294813  7.9885930000  8.2399800000  6.6675640000
228      16   3 -0.38364096996018820507  6.8300240000  7.5682480000  7.2739280000
229      16   3 -0.38364096996018820507  8.8702900000  7.4506400000  5.7925340000
230      16   4  0.25334781035106768154  9.0777370000  8.7060360000  8.1368520000
231      16   5 -0.11581614187477379252  8.4294630000  9.4691340000  9.0333740000
232      16   5 -0.11581614187477379252 10.1898440000  9.3551560000  7.7518300000
233      16   5 -0.11581614187477379252  9.4592420000  7.5703800000  8.7612040000
234      16   2  0.73832790445168294813  7.0955010000 10.1680900000  4.7690540000
235      16   3 -0.38364096996018820507  6.4203760000 11.4669430000  4.8842890000
236      16   3 -0.38364096996018820507  6.4554990000  9.0796240000  4.0163960000
237      16   4  0.25334781035106768154  8.6241970000 10.5951480000  3.7399460000
238      16   5 -0.11581614187477379252  9.3483940000 11.5719720000  4.3208210000
239      16   5 -0.11581614187477379252  9.4230960000  9.5323130000  3.5618330000
240      16   5 -0.11581614187477379252  8.2422270000 11.0373630000  2.5209180000
241      17   1 -0.47774158523344190108 16.1712440000 46.8681160000 35.8251970000
242      17   2  0.73832790445168294813 16.1651440000 45.2449900000 35.8003790000
243      17   3 -0.38364096996018820507 16.1999590000 44.6657640000 34.4496510000
244      17   3 -0.38364096996018820507 16.9322140000 44.5760780000 36.8635280000
245      17   4  0.25334781035106768154 14.3641270000 45.0678590000 36.3363030000
246      17   5 -0.11581614187477379252 13.5143580000 45.6614780000 35.4808280000
247      17   5 -0.11581614187477379252 14.1532470000 45.5732570000 37.5636930000
248      17   5 -0.11581614187477379252 14.0587390000 43.7524350000 36.3746930000
249      17   2  0.73832790445168294813 17.5086000000 47.7578940000 35.8025150000
250      17   3 -0.38364096996018820507 17.1905610000 49.0778690000 35.2434030000
251      17   3 -0.38364096996018820507 18.7335610000 47.0642940000 35.3791430000
252      17   4  0.25334781035106768154 17.8170490000 48.1533080000 37.6264840000
253      17   5 -0.11581614187477379252 16.7559930000 48.7733690000 38.1794280000
254      17   5 -0.11581614187477379252 18.0761170000 47.0493340000 38.3432160000
255      17   5 -0.11581614187477379252 18.8800340000 48.9809550000 37.7384960000
256      18   1 -0.47774158523344190108 14.9392320000 29.5456650000 26.8973650000
257      18   2  0.73832790445168294813 14.8738920000 29.3784850000 25.2839920000
258      18   3 -0.38364096996018820507 16.1783550000 29.4933450000 24.6158870000
259      18   3 -0.38364096996018820507 13.9157220000 28.3855680000 24.7719840000
260      18   4  0.25334781035106768154 14.0414150000 31.0427230000 24.9684880000
261      18   5 -0.11581614187477379252 14.7773690000 32.0759690000 25.4124510000
262      18   5 -0.11581614187477379252 12.8255700000 31.1120010000 25.5370860000
263      18   5 -0.11581614187477379252 13.8816400000 31.1929410000 23.6354530000
264      18   2  0.73832790445168294813 15.2292330000 28.3336310000 27.9110780000
265      18   3 -0.38364096996018820507 15.8000760000 28.8776400000 29.1497400000
266      18   3 -0.38364096996018820507 15.8088920000 27.1221400000 27.3134650000
267      18   4  0.25334781035106768154 13.5047890000 27.7874400000 28.4645420000
268      18   5 -0.11581614187477379252 12.8203200000 28.8096710000 29.0146400000
269      18   5 -0.11581614187477379252 12.7808520000 27.3001120000 27.4457150000
270      18   5 -0.11581614187477379252 13.6137930000 26.8167700000 29.3991030000
271      19   1 -0.47774158523344190108 57.2669820000 13.5473910000  7.7194060000
272      19   2  0.73832790445168294813 58.0108510000 14.9179610000  7.2684220000
273      19   3 -0.38364096996018820507 58.8872220000 14.7673710000  6.0977470000
274      19   3 -0.38364096996018820507 57.2240760000 16.1555220000  7.3931350000
275      19   4  0.25334781035106768154 59.1977190000 14.9645180000  8.7351960000
276      19   5 -0.11581614187477379252 59.9819290000 13.8746380000  8.7943880000
277      19   5 -0.11581614187477379252 58.5463720000 15.0830890000  9.9048420000
278      19   5 -0.11581614187477379252 60.0000310000 16.0429380000  8.5996190000
279      19   2  0.73832790445168294813 55.8671640000 13.0473690000  7.1101200000
280      19   3 -0.38364096996018820507 55.7824280000 11.5883180000  7.2518210000
281      19   3 -0.38364096996018820507 55.4527880000 13.6813410000  5.8502690000
282      19   4  0.25334781035106768154 54.5881360000 13.6520630000  8.3658220000
283      19   5 -0.11581614187477379252 54.8497670000 13.1763020000  9.5992170000
284      19   5 -0.11581614187477379252 54.5456370000 14.9910990000  8.4347990000
285      19   5 -0.11581614187477379252 53.3596210000 13.2146820000  8.0095450000
286      20   1 -0.47774158523344190108 22.0484270000 47.7736440000 32.1117120000
287      20   2  0.73832790445168294813 23.6075750000 47.3217460000 32.1055830000
288      20   3 -0.38364096996018820507 23.8186790000 45.9001190000 31.7964020000
289      20   3 -0.38364096996018820507 24.5654700000 48.3001640000 31.5658980000
290      20   4  0.25334781035106768154 23.8288610000 47.4287560000 33.9769010000
291      20   5 -0.11581614187477379252 22.9932710000 46.6105080000 34.6391600000
292      20   5 -0.11581614187477379252 23.6484520000 48.6799650000 34.4333140000
293      20   5 -0.11581614187477379252 25.0928510000 47.0589670000 34.2780020000
294      20   2  0.73832790445168294813 21.2496820000 48.2482810000 30.8011900000
295      20   3 -0.38364096996018820507 19.8160670000 48.0053020000 31.0056360000
296      20   3 -0.38364096996018820507 21.8693060000 47.9056010000 29.5129770000
297      20   4  0.25334781035106768154 21.3551350000 50.1357800000 30.8688590000
298      20   5 -0.11581614187477379252 20.8480020000 50.6135950000 32.0223630000
299      20   5 -0.11581614187477379252 22.6182520000 50.5729670000 30.7549190000
300      20   5 -0.11581614187477379252 20.6377300000 50.6675820000 29.8539680000
301      21   1 -0.47774158523344190108 13.6675290000  5.5874630000 35.0564290000
302      21   2  0.73832790445168294813 14.7292390000  5.1067850000 33.9264240000
303      21   3 -0.38364096996018820507 15.2037860000  3.7260270000 34.0981620000
304      21   3 -0.38364096996018820507 14.4873260000  5.5936070000 32.5587220000
305      21   4  0.25334781035106768154 16.1537640000  6.1705490000 34.5599730000
306      21   5 -0.11581614187477379252 16.4878760000  5.8766970000 35.8281800000
307      21   5 -0.11581614187477379252 15.8713850000  7.4826110000 34.4883050000
308      21   5 -0.11581614187477379252 17.2354830000  5.9392950000 33.7844200000
309      21   2  0.73832790445168294813 12.0824150000  5.3473000000 34.9540640000
310      21   3 -0.38364096996018820507 11.5160350000  5.3359330000 36.3087500000
311      21   3 -0.38364096996018820507 11.6479900000  4.3402410000 33.9753090000
312      21   4  0.25334781035106768154 11.4247670000  6.9764570000 34.2528500000
313      21   5 -0.11581614187477379252 11.7713940000  8.0202350000 35.0315920000
314      21   5 -0.11581614187477379252 11.8807500000  7.2104720000 33.0131330000
315      21   5 -0.11581614187477379252 10.0746240000  6.9356640000 34.1986800000
316      22   1 -0.47774158523344190108 11.3886790000  3.3839870000  2.8435150000
317      22   2  0.73832790445168294813 11.2913710000  2.5463250000  4.2306140000
318      22   3 -0.38364096996018820507 12.5949080000  2.2208090000  4.8272830000
319      22   3 -0.38364096996018820507 10.1852830000  2.9078920000  5.1317050000
320      22   4  0.25334781035106768154 10.7335080000  0.9340330000  3.4234270000
321      22   5 -0.11581614187477379252 11.6263860000  0.4719900000  2.5314560000
322      22   5 -0.11581614187477379252  9.5464170000  1.0653510000  2.8070240000
323      22   5 -0.11581614187477379252 10.5946170000 -0.0000010000  4.3895370000
324      22   2  0.73832790445168294813 11.4857230000  4.9858830000  2.7710420000
325      22   3 -0.38364096996018820507 12.1406840000  5.3648580000  1.5126720000
326      22   3 -0.38364096996018820507 11.8626510000  5.6629630000  4.0201790000
327      22   4  0.25334781035106768154  9.6984090000  5.5322620000  2.4789250000
328      22   5 -0.11581614187477379252  9.1876730000  4.9637400000  1.3689720000
329      22   5 -0.11581614187477379252  8.9021830000  5.2201880000  3.5124700000
330      22   5 -0.11581614187477379252  9.6549250000  6.8728420000  2.3102860000
331      23   1 -0.47774158523344190108 28.0958750000 53.8356280000 23.7806910000
332      23   2  0.73832790445168294813 28.8604260000 53.0889690000 25.0026370000
333      23   3 -0.38364096996018820507 30.3207300000 53.0242830000 24.8460780000