Generated by pymatgen.io.lammps.data.LammpsData

17240  atoms
16480  bonds
29719  angles
31050  dihedrals

   15  atom types
   14  bond types
   23  angle types
   21  dihedral types

-0.2500000000 60.2500000000  xlo xhi
-0.2500000000 60.2500000000  ylo yhi
-0.2500000000 60.2500000000  zlo zhi

Masses

1   15.99940
2   12.01070
3    1.00794
4   14.01000
5   32.06000
6   16.00000
7   12.01000
8   19.00000
9   16.00000
10  12.01000
11  12.01000
12   1.00800
13  32.06000
14  32.06000
15   6.94100

Pair Coeffs

1     0.1400  2.900000
2     0.0660  3.500000
3     0.0300  2.500000
4       0.17  3.249999
5       0.25  3.549340
6       0.21  2.959566
7      0.066  3.499450
8      0.053  2.948875
9       0.14  2.900000
10     0.066  3.500000
11     0.066  3.500000
12      0.03  2.500000
13  0.344001  3.590322
14  0.344001  3.590322
15  0.165057  1.506000

Bond Coeffs

1   320.00  1.410
2   268.00  1.529
3   340.00  1.090
4   441.80  1.323
5   235.40  1.818
6   637.10  1.442
7   372.00  1.570
8   320.00  1.410
9   320.00  1.380
10  268.00  1.529
11  340.00  1.090
12  340.00  1.090
13  157.87  2.133
14  154.36  2.117


Angle Coeffs

1    60.00  109.50
2    58.35  112.70
3    37.50  110.70
4    33.00  107.80
5    50.00  109.50
6    35.00  109.50
7    93.30  107.10
8    82.90  111.80
9   104.00  102.60
10  115.80  118.50
11   94.30  113.60
12   97.50  100.20
13   80.20  125.60
14   60.00  109.50
15   50.00  109.50
16   35.00  109.50
17   37.50  110.70
18   33.00  107.80
19   92.60  111.55
20   35.00  109.50
21   33.00  109.50
22   73.56  112.74
23   73.56  112.74


Dihedral Coeffs

1 3 0.062500000 1 0.000000000 -0.011000000 2 180.000000000 0.280500000 3 0.000000000
2 1 0.370500000 3 0.000000000
3 3 0.627500000 1 0.000000000 -0.309500000 2 180.000000000 0.273000000 3 0.000000000
4 1 0.150000000 3 0.000000000
5 1 0.234000000 3 0.000000000
6 1 0.150000000 3 0.000000000
7 1 0.173400000 3 0.000000000
8 1 0.158000000 3 0.000000000
9 1 -0.001800000 3 0.000000000
10 3 3.916460000 1 0.000000000 -1.245000000 2 180.000000000 -0.381800000 3 0.000000000
11 3 0.062500000 1 0.000000000 -0.011000000 2 180.000000000 0.280500000 3 0.000000000
12 3 0.062500000 1 0.000000000 -0.011000000 2 180.000000000 0.280500000 3 0.000000000
13 1 0.370500000 3 0.000000000
14 1 0.370500000 3 0.000000000
15 3 -0.533500000 1 0.000000000 -0.783500000 2 180.000000000 0.337500000 3 0.000000000
16 1 0.370500000 3 0.000000000
17 3 1.119000000 1 0.000000000 -1.163500000 2 180.000000000 -0.341500000 3 0.000000000
18 1 0.234000000 3 0.000000000
19 1 0.150000000 3 0.000000000
20 4 5.431700000 1 0.000000000 -3.590000000 2 180.000000000 1.055600000 3 0.000000000 0.058320000 4 180.000000000
21 4 5.431700000 1 0.000000000 -3.590000000 2 180.000000000 1.055600000 3 0.000000000 0.058320000 4 180.000000000


Atoms

1         1   1 -0.40000000000000002220 20.2807830000  6.5641920000 48.0575370000
2         1   2 -0.11999999999999999556 19.3979910000  8.0966520000 49.6759510000
3         1   2  0.14000000000000001332 19.0856750000  6.9489170000 48.7214430000
4         1   2  0.14000000000000001332 20.0982500000  5.5142550000 47.1188920000
5         1   2 -0.17999999999999999334 19.8978780000  9.3548590000 48.9587340000
6         1   2 -0.17999999999999999334 21.4427090000  5.1983230000 46.4816520000
7         1   3  0.05999999999999999778 18.4854180000  8.3206900000 50.2455860000
8         1   3  0.05999999999999999778 20.1489900000  7.7511590000 50.3987930000
9         1   3  0.02999999999999999889 18.3297220000  7.2650380000 47.9795290000
10        1   3  0.02999999999999999889 18.6691350000  6.0892820000 49.2740430000
11        1   3  0.02999999999999999889 19.6887970000  4.6233750000 47.6258570000
12        1   3  0.02999999999999999889 19.3666040000  5.8207220000 46.3503510000
13        1   3  0.05999999999999999778 19.1483560000  9.7262270000 48.2479870000
14        1   3  0.05999999999999999778 20.1103520000 10.1587670000 49.6738080000
15        1   3  0.05999999999999999778 20.8145230000  9.1420410000 48.3990750000
16        1   3  0.05999999999999999778 22.1635080000  4.8871340000 47.2454970000
17        1   3  0.05999999999999999778 21.3382600000  4.3886560000 45.7490120000
18        1   3  0.05999999999999999778 21.8415670000  6.0822880000 45.9722540000
19        2   1 -0.40000000000000002220 21.6580020000  8.7782260000 37.4900630000
20        2   2 -0.11999999999999999556 20.3011130000  9.7589390000 35.7742310000
21        2   2  0.14000000000000001332 21.6706930000  9.7397670000 36.4449080000
22        2   2  0.14000000000000001332 22.8830250000  8.6965100000 38.2037710000
23        2   2 -0.17999999999999999334 19.1753180000 10.1890080000 36.7202750000
24        2   2 -0.17999999999999999334 22.7398200000  7.6389020000 39.2874760000
25        2   3  0.05999999999999999778 20.3555370000 10.4397430000 34.9134120000
26        2   3  0.05999999999999999778 20.0965860000  8.7562180000 35.3760060000
27        2   3  0.02999999999999999889 21.9076190000 10.7378870000 36.8565570000
28        2   3  0.02999999999999999889 22.4563450000  9.4880260000 35.7119540000
29        2   3  0.02999999999999999889 23.7042060000  8.4375230000 37.5131750000
30        2   3  0.02999999999999999889 23.1245790000  9.6781730000 38.6485980000
31        2   3  0.05999999999999999778 19.3537270000 11.1995710000 37.1098780000
32        2   3  0.05999999999999999778 18.2070320000 10.1933840000 36.2053490000
33        2   3  0.05999999999999999778 19.1069060000  9.5073630000 37.5743390000
34        2   3  0.05999999999999999778 22.5082010000  6.6651910000 38.8424050000
35        2   3  0.05999999999999999778 23.6711210000  7.5489550000 39.8600290000
36        2   3  0.05999999999999999778 21.9297990000  7.9038670000 39.9756830000
37        3   1 -0.40000000000000002220  9.6018240000 20.7932620000 53.2542700000
38        3   2 -0.11999999999999999556  7.5040440000 20.6512490000 52.1026750000
39        3   2  0.14000000000000001332  8.2677330000 20.3230230000 53.3813340000
40        3   2  0.14000000000000001332 10.4143340000 20.5139940000 54.3850110000
41        3   2 -0.17999999999999999334  8.0751070000 19.9505170000 50.8656480000
42        3   2 -0.17999999999999999334 11.8080170000 21.0648650000 54.1249190000
43        3   3  0.05999999999999999778  6.4542200000 20.3632600000 52.2523370000
44        3   3  0.05999999999999999778  7.5193870000 21.7399600000 51.9600660000
45        3   3  0.02999999999999999889  8.2698840000 19.2313130000 53.5545360000
46        3   3  0.02999999999999999889  7.7836500000 20.7963580000 54.2528050000
47        3   3  0.02999999999999999889  9.9754900000 20.9751580000 55.2867190000
48        3   3  0.02999999999999999889 10.4537590000 19.4240140000 54.5590000000
49        3   3  0.05999999999999999778  8.0460150000 18.8595650000 50.9832770000
50        3   3  0.05999999999999999778  7.5017110000 20.2070650000 49.9666790000
51        3   3  0.05999999999999999778  9.1176310000 20.2427700000 50.7029270000
52        3   3  0.05999999999999999778 11.7662500000 22.1470590000 53.9607230000
53        3   3  0.05999999999999999778 12.4641060000 20.8662500000 54.9812650000
54        3   3  0.05999999999999999778 12.2434830000 20.5984990000 53.2345030000
55        4   1 -0.40000000000000002220 58.4680710000 22.4717230000 43.6746570000
56        4   2 -0.11999999999999999556 58.1449200000 21.7506910000 41.4113170000
57        4   2  0.14000000000000001332 58.6420050000 21.3657480000 42.8007950000
58        4   2  0.14000000000000001332 58.9263830000 22.2304590000 44.9969580000
59        4   2 -0.17999999999999999334 58.9398250000 22.9020660000 40.7869500000
60        4   2 -0.17999999999999999334 58.6852020000 23.4822730000 45.8265690000
61        4   3  0.05999999999999999778 58.2021450000 20.8585020000 40.7724190000
62        4   3  0.05999999999999999778 57.0835730000 22.0223300000 41.4862890000
63        4   3  0.02999999999999999889 59.7103360000 21.0850720000 42.7592970000
64        4   3  0.02999999999999999889 58.0842850000 20.4934480000 43.1827460000
65        4   3  0.02999999999999999889 58.3905630000 21.3677190000 45.4292890000
66        4   3  0.02999999999999999889 60.0010390000 21.9759990000 44.9812630000
67        4   3  0.05999999999999999778 60.0001620000 22.6374870000 40.6842810000
68        4   3  0.05999999999999999778 58.5573270000 23.1506250000 39.7896240000
69        4   3  0.05999999999999999778 58.8767390000 23.7986780000 41.4121330000
70        4   3  0.05999999999999999778 57.6177420000 23.7271760000 45.8466070000
71        4   3  0.05999999999999999778 59.0284670000 23.3304500000 46.8572730000
72        4   3  0.05999999999999999778 59.2254870000 24.3340740000 45.3993750000
73        5   1 -0.40000000000000002220 30.9202370000 16.9926160000 13.4241050000
74        5   2 -0.11999999999999999556 32.8470050000 15.5719650000 13.5519160000
75        5   2  0.14000000000000001332 31.9249730000 16.3704580000 12.6363900000
76        5   2  0.14000000000000001332 29.9850830000 17.7444190000 12.6644880000
77        5   2 -0.17999999999999999334 32.1282230000 14.4333260000 14.2828260000
78        5   2 -0.17999999999999999334 28.9695400000 18.3550610000 13.6180330000
79        5   3  0.05999999999999999778 33.6681360000 15.1729370000 12.9403730000
80        5   3  0.05999999999999999778 33.2960420000 16.2622220000 14.2783970000
81        5   3  0.02999999999999999889 31.4565980000 15.7025590000 11.8904890000
82        5   3  0.02999999999999999889 32.4970350000 17.1355440000 12.0839120000
83        5   3  0.02999999999999999889 30.5088680000 18.5327340000 12.0965600000
84        5   3  0.02999999999999999889 29.4835760000 17.0885430000 11.9308670000
85        5   3  0.05999999999999999778 31.6925400000 13.7216110000 13.5697330000
86        5   3  0.05999999999999999778 32.8202540000 13.8803000000 14.9293550000
87        5   3  0.05999999999999999778 31.3164340000 14.8249890000 14.9043930000
88        5   3  0.05999999999999999778 29.4692170000 19.0110280000 14.3390590000
89        5   3  0.05999999999999999778 28.2297300000 18.9448680000 13.0630210000
90        5   3  0.05999999999999999778 28.4458310000 17.5693610000 14.1733460000
91        6   1 -0.40000000000000002220 25.0741930000  6.8631330000 50.0790610000
92        6   2 -0.11999999999999999556 27.1236720000  5.6311420000 50.2489340000
93        6   2  0.14000000000000001332 25.7484240000  5.8849990000 50.8573520000
94        6   2  0.14000000000000001332 23.7863540000  7.1974640000 50.5754800000
95        6   2 -0.17999999999999999334 28.0257180000  6.8694400000 50.2662980000
96        6   2 -0.17999999999999999334 23.1744760000  8.2468430000 49.6601290000
97        6   3  0.05999999999999999778 27.5941570000  4.8099010000 50.8072110000
98        6   3  0.05999999999999999778 26.9864460000  5.2790170000 49.2178950000
99        6   3  0.02999999999999999889 25.8520300000  6.2406710000 51.8987920000
100       6   3  0.02999999999999999889 25.1588180000  4.9524810000 50.8822330000
101       6   3  0.02999999999999999889 23.1515250000  6.2952640000 50.6123870000
102       6   3  0.02999999999999999889 23.8701110000  7.5831580000 51.6070360000
103       6   3  0.05999999999999999778 28.1911930000  7.2209310000 51.2929090000
104       6   3  0.05999999999999999778 29.0051120000  6.6506340000 49.8239670000
105       6   3  0.05999999999999999778 27.5688190000  7.6881510000 49.7008760000
106       6   3  0.05999999999999999778 23.0855180000  7.8583220000 48.6398420000
107       6   3  0.05999999999999999778 22.1756650000  8.5289490000 50.0151270000
108       6   3  0.05999999999999999778 23.8027890000  9.1437570000 49.6330010000
109       7   1 -0.40000000000000002220 23.5254020000 23.2685880000 14.1474240000
110       7   2 -0.11999999999999999556 23.1019640000 25.3406650000 15.2762360000
111       7   2  0.14000000000000001332 23.5789820000 23.8991290000 15.4188860000
112       7   2  0.14000000000000001332 23.9246540000 21.9059350000 14.1701170000
113       7   2 -0.17999999999999999334 21.6430390000 25.4479990000 14.8208320000
114       7   2 -0.17999999999999999334 23.8231530000 21.3503890000 12.7578410000
115       7   3  0.05999999999999999778 23.2351810000 25.8386250000 16.2466760000
116       7   3  0.05999999999999999778 23.7588860000 25.8535470000 14.5612040000
117       7   3  0.02999999999999999889 22.9370240000 23.3542170000 16.1349820000
118       7   3  0.02999999999999999889 24.6106570000 23.8704100000 15.8096120000
119       7   3  0.02999999999999999889 24.9585490000 21.8230870000 14.5476490000
120       7   3  0.02999999999999999889 23.2762210000 21.3361510000 14.8591490000
121       7   3  0.05999999999999999778 20.9705180000 24.9590390000 15.5374160000
122       7   3  0.05999999999999999778 21.3336570000 26.4963030000 14.7309160000
123       7   3  0.05999999999999999778 21.5054750000 24.9647890000 13.8480370000
124       7   3  0.05999999999999999778 24.4733740000 21.9125380000 12.0788340000
125       7   3  0.05999999999999999778 24.1255050000 20.2961400000 12.7385500000
126       7   3  0.05999999999999999778 22.7940980000 21.4263950000 12.3900950000
127       8   1 -0.40000000000000002220 11.2703190000 17.8577500000 55.8971000000
128       8   2 -0.11999999999999999556 12.2864480000 19.1170210000 57.6659240000
129       8   2  0.14000000000000001332 12.1232330000 17.7419600000 57.0267900000
130       8   2  0.14000000000000001332 11.0266410000 16.6234220000 55.2384700000
131       8   2 -0.17999999999999999334 10.9695700000 19.6922310000 58.1972800000
132       8   2 -0.17999999999999999334 10.1065570000 16.8819310000 54.0552210000
133       8   3  0.05999999999999999778 13.0182860000 19.0266300000 58.4806080000
134       8   3  0.05999999999999999778 12.7208520000 19.7960360000 56.9202050000
135       8   3  0.02999999999999999889 11.6877900000 17.0326880000 57.7542220000
136       8   3  0.02999999999999999889 13.1037350000 17.3405530000 56.7180320000
137       8   3  0.02999999999999999889 11.9805130000 16.1824630000 54.9008060000
138       8   3  0.02999999999999999889 10.5639650000 15.9078580000 55.9411670000
139       8   3  0.05999999999999999778 10.5334100000 19.0354060000 58.9609580000
140       8   3  0.05999999999999999778 11.1241870000 20.6786760000 58.6508930000
141       8   3  0.05999999999999999778 10.2394460000 19.7970490000 57.3881580000
142       8   3  0.05999999999999999778 10.5717520000 17.5856750000 53.3565160000
143       8   3  0.05999999999999999778  9.8970040000 15.9466540000 53.5217650000
144       8   3  0.05999999999999999778  9.1578760000 17.3113290000 54.3952040000
145       9   1 -0.40000000000000002220 13.5323330000 11.0988980000 18.6640440000
146       9   2 -0.11999999999999999556 12.7022600000 11.9704020000 20.7373210000
147       9   2  0.14000000000000001332 12.3378040000 11.3857440000 19.3767070000
148       9   2  0.14000000000000001332 13.3077440000 10.5723760000 17.3644000000
149       9   2 -0.17999999999999999334 13.4553240000 13.3008800000 20.6368440000
150       9   2 -0.17999999999999999334 14.6559940000 10.3098040000 16.7111480000
151       9   3  0.05999999999999999778 11.7730490000 12.1014460000 21.3090380000
152       9   3  0.05999999999999999778 13.3095650000 11.2333760000 21.2793890000
153       9   3  0.02999999999999999889 11.7235560000 12.1050900000 18.8048030000
154       9   3  0.02999999999999999889 11.7424990000 10.4645910000 19.4989000000
155       9   3  0.02999999999999999889 12.7200570000  9.6405320000 17.4324020000
156       9   3  0.02999999999999999889 12.7190070000 11.2895880000 16.7653350000
157       9   3  0.05999999999999999778 12.8518260000 14.0559090000 20.1166710000
158       9   3  0.05999999999999999778 13.6991850000 13.6925850000 21.6317530000
159       9   3  0.05999999999999999778 14.3890270000 13.1751080000 20.0790560000
160       9   3  0.05999999999999999778 15.2339180000  9.5921970000 17.3035110000
161       9   3  0.05999999999999999778 14.5194940000  9.9009030000 15.7024860000
162       9   3  0.05999999999999999778 15.2325440000 11.2383220000 16.6375860000
163      10   1 -0.40000000000000002220 14.1153080000 22.9662470000  4.4473340000
164      10   2 -0.11999999999999999556 14.7547520000 24.9715020000  5.5949780000
165      10   2  0.14000000000000001332 15.0727850000 23.5001460000  5.3502520000
166      10   2  0.14000000000000001332 14.3021450000 21.5862020000  4.1692920000
167      10   2 -0.17999999999999999334 13.3913970000 25.1885950000  6.2594380000
168      10   2 -0.17999999999999999334 13.2207350000 21.1396520000  3.1973840000
169      10   3  0.05999999999999999778 15.5543190000 25.3907290000  6.2214020000
170      10   3  0.05999999999999999778 14.7933780000 25.4987710000  4.6325020000
171      10   3  0.02999999999999999889 15.0429770000 22.9401030000  6.3027740000
172      10   3  0.02999999999999999889 16.0876440000 23.3886910000  4.9313480000
173      10   3  0.02999999999999999889 15.3049150000 21.4216630000  3.7383480000
174      10   3  0.02999999999999999889 14.2470630000 21.0036740000  5.1060470000
175      10   3  0.05999999999999999778 13.3445520000 24.6858690000  7.2340820000
176      10   3  0.05999999999999999778 13.1968500000 26.2556000000  6.4219100000
177      10   3  0.05999999999999999778 12.5883580000 24.7844590000  5.6345000000
178      10   3  0.05999999999999999778 13.2832550000 21.7137610000  2.2666110000
179      10   3  0.05999999999999999778 13.3355060000 20.0749400000  2.9598030000
180      10   3  0.05999999999999999778 12.2275350000 21.2964170000  3.6320650000
181      11   1 -0.40000000000000002220 37.5145100000 41.3725030000 37.7868710000
182      11   2 -0.11999999999999999556 37.8569490000 41.9636430000 35.4889790000
183      11   2  0.14000000000000001332 37.2817340000 40.9342570000 36.4561480000
184      11   2  0.14000000000000001332 37.0406360000 40.4693970000 38.7750930000
185      11   2 -0.17999999999999999334 39.3757010000 42.1220620000 35.6141490000
186      11   2 -0.17999999999999999334 37.3487060000 41.0505520000 40.1465200000
187      11   3  0.05999999999999999778 37.5893980000 41.6556370000 34.4686780000
188      11   3  0.05999999999999999778 37.3610430000 42.9260710000 35.6724880000
189      11   3  0.02999999999999999889 37.7609220000 39.9511270000 36.2959390000
190      11   3  0.02999999999999999889 36.1987680000 40.8072510000 36.2861540000
191      11   3  0.02999999999999999889 35.9546560000 40.3141600000 38.6530890000
192      11   3  0.02999999999999999889 37.5293770000 39.4867450000 38.6509610000
193      11   3  0.05999999999999999778 39.8880470000 41.1727490000 35.4112550000
194      11   3  0.05999999999999999778 39.7547530000 42.8670260000 34.9041530000
195      11   3  0.05999999999999999778 39.6487650000 42.4413110000 36.6252190000
196      11   3  0.05999999999999999778 36.8560700000 42.0211670000 40.2692650000
197      11   3  0.05999999999999999778 36.9947690000 40.3765010000 40.9362120000
198      11   3  0.05999999999999999778 38.4278740000 41.1949620000 40.2669780000
199      12   1 -0.40000000000000002220 51.4760540000 27.5922020000 14.6638420000
200      12   2 -0.11999999999999999556 52.9038850000 29.4205120000 14.0591910000
201      12   2  0.14000000000000001332 52.5571880000 28.3882640000 15.1269880000
202      12   2  0.14000000000000001332 51.0511070000 26.6100050000 15.5973560000
203      12   2 -0.17999999999999999334 51.7594350000 30.3989920000 13.7760220000
204      12   2 -0.17999999999999999334 49.8970660000 25.8308130000 14.9853850000
205      12   3  0.05999999999999999778 53.7970290000 29.9662860000 14.3936920000
206      12   3  0.05999999999999999778 53.1807720000 28.8878400000 13.1397030000
207      12   3  0.02999999999999999889 52.2742070000 28.8938210000 16.0683530000
208      12   3  0.02999999999999999889 53.4297150000 27.7481630000 15.3433440000
209      12   3  0.02999999999999999889 51.8899330000 25.9355150000 15.8418310000
210      12   3  0.02999999999999999889 50.7358380000 27.0968960000 16.5372640000
211      12   3  0.05999999999999999778 51.4855880000 30.9562380000 14.6811980000
212      12   3  0.05999999999999999778 52.0435960000 31.1267510000 13.0063710000
213      12   3  0.05999999999999999778 50.8696730000 29.8630080000 13.4299150000
214      12   3  0.05999999999999999778 50.2153090000 25.3427970000 14.0578020000
215      12   3  0.05999999999999999778 49.5430720000 25.0608580000 15.6818670000
216      12   3  0.05999999999999999778 49.0634480000 26.5021580000 14.7522670000
217      13   1 -0.40000000000000002220 40.9350110000 17.1537870000 15.4798820000
218      13   2 -0.11999999999999999556 42.8248200000 15.9661140000 16.3545680000
219      13   2  0.14000000000000001332 41.9004990000 17.1676660000 16.5213770000
220      13   2  0.14000000000000001332 40.0344160000 18.2509530000 15.5234010000
221      13   2 -0.17999999999999999334 43.6236000000 16.0000040000 15.0475960000
222      13   2 -0.17999999999999999334 39.0587510000 18.1199090000 14.3639330000
223      13   3  0.05999999999999999778 43.5061840000 15.9413190000 17.2163070000
224      13   3  0.05999999999999999778 42.2171040000 15.0526900000 16.4014960000
225      13   3  0.02999999999999999889 42.4835110000 18.1058520000 16.4796970000
226      13   3  0.02999999999999999889 41.3959420000 17.1337710000 17.5022520000
227      13   3  0.02999999999999999889 39.4956140000 18.2574080000 16.4867200000
228      13   3  0.02999999999999999889 40.5951670000 19.1999490000 15.4537820000
229      13   3  0.05999999999999999778 44.2541080000 16.8969930000 14.9953340000
230      13   3  0.05999999999999999778 44.2777090000 15.1239110000 14.9618750000
231      13   3  0.05999999999999999778 42.9508300000 16.0119820000 14.1838930000
232      13   3  0.05999999999999999778 38.4987610000 17.1816060000 14.4404120000
233      13   3  0.05999999999999999778 38.3459970000 18.9536950000 14.3673020000
234      13   3  0.05999999999999999778 39.5964590000 18.1226620000 13.4095580000
235      14   1 -0.40000000000000002220 13.9621080000 32.1956700000 50.6197190000
236      14   2 -0.11999999999999999556 15.2512590000 31.1643070000 48.8815020000
237      14   2  0.14000000000000001332 15.2464120000 31.6680330000 50.3210010000
238      14   2  0.14000000000000001332 13.8538520000 32.7208800000 51.9347000000
239      14   2 -0.17999999999999999334 15.0104660000 32.2763630000 47.8554780000
240      14   2 -0.17999999999999999334 12.4411400000 33.2505970000 52.1273230000
241      14   3  0.05999999999999999778 16.2195390000 30.6789360000 48.6962570000
242      14   3  0.05999999999999999778 14.4808840000 30.3878750000 48.7838300000
243      14   3  0.02999999999999999889 16.0139890000 32.4523980000 50.4530270000
244      14   3  0.02999999999999999889 15.4871950000 30.8473250000 51.0183570000
245      14   3  0.02999999999999999889 14.0783020000 31.9328010000 52.6742180000
246      14   3  0.02999999999999999889 14.5942050000 33.5277140000 52.0788520000
247      14   3  0.05999999999999999778 15.7858690000 33.0501590000 47.9251180000
248      14   3  0.05999999999999999778 15.0224220000 31.8795910000 46.8331400000
249      14   3  0.05999999999999999778 14.0412770000 32.7562290000 48.0262010000
250      14   3  0.05999999999999999778 11.7100290000 32.4463020000 51.9915470000
251      14   3  0.05999999999999999778 12.3218660000 33.6648760000 53.1359750000
252      14   3  0.05999999999999999778 12.2253130000 34.0383530000 51.3973730000
253      15   1 -0.40000000000000002220 38.3201550000 41.0002630000 54.0302050000
254      15   2 -0.11999999999999999556 39.4219590000 39.2288940000 55.2114330000
255      15   2  0.14000000000000001332 38.6293320000 40.5261750000 55.3327870000
256      15   2  0.14000000000000001332 37.6023420000 42.2256040000 54.0255140000
257      15   2 -0.17999999999999999334 40.7694710000 39.4124180000 54.5058090000
258      15   2 -0.17999999999999999334 37.3351730000 42.6221400000 52.5816170000
259      15   3  0.05999999999999999778 39.5739290000 38.8294120000 56.2237500000
260      15   3  0.05999999999999999778 38.8083990000 38.4978330000 54.6683320000
261      15   3  0.02999999999999999889 39.2207760000 41.2848000000 55.8773190000
262      15   3  0.02999999999999999889 37.6991840000 40.3587930000 55.9025700000
263      15   3  0.02999999999999999889 36.6544570000 42.1084430000 54.5787950000
264      15   3  0.02999999999999999889 38.1894410000 43.0066190000 54.5405020000
265      15   3  0.05999999999999999778 41.4041490000 40.1241940000 55.0493320000
266      15   3  0.05999999999999999778 41.3122590000 38.4618790000 54.4379750000
267      15   3  0.05999999999999999778 40.6249580000 39.7983970000 53.4914710000
268      15   3  0.05999999999999999778 36.7460600000 41.8492410000 52.0762230000
269      15   3  0.05999999999999999778 36.7801830000 43.5674120000 52.5406650000
270      15   3  0.05999999999999999778 38.2782890000 42.7459130000 52.0383130000
271      16   1 -0.40000000000000002220 56.7676810000 53.1762360000 17.9279330000
272      16   2 -0.11999999999999999556 54.5852750000 54.1064320000 18.2726940000
273      16   2  0.14000000000000001332 55.8556550000 54.1442480000 17.4297060000
274      16   2  0.14000000000000001332 58.0033140000 53.1448090000 17.2286740000
275      16   2 -0.17999999999999999334 54.8264440000 54.4793590000 19.7390280000
276      16   2 -0.17999999999999999334 58.8843810000 52.0747240000 17.8548520000
277      16   3  0.05999999999999999778 53.8581780000 54.7946520000 17.8197610000
278      16   3  0.05999999999999999778 54.1553220000 53.0981980000 18.2058380000
279      16   3  0.02999999999999999889 56.3136220000 55.1492500000 17.4752140000
280      16   3  0.02999999999999999889 55.6237420000 53.9328150000 16.3717100000
281      16   3  0.02999999999999999889 57.8260160000 52.9274500000 16.1611280000
282      16   3  0.02999999999999999889 58.4925330000 54.1333590000 17.2862510000
283      16   3  0.05999999999999999778 55.2356420000 55.4943130000 19.8243780000
284      16   3  0.05999999999999999778 53.8932650000 54.4437230000 20.3140510000
285      16   3  0.05999999999999999778 55.5406670000 53.7897170000 20.2005760000
286      16   3  0.05999999999999999778 58.3998290000 51.0945650000 17.7889210000
287      16   3  0.05999999999999999778 59.8500880000 52.0228390000 17.3372160000
288      16   3  0.05999999999999999778 59.0651480000 52.2985710000 18.9118210000
289      17   1 -0.40000000000000002220  2.1531810000 17.2562340000 52.6069370000
290      17   2 -0.11999999999999999556  1.4055980000 19.0372310000 54.0268630000
291      17   2  0.14000000000000001332  2.4173850000 18.6032240000 52.9714730000
292      17   2  0.14000000000000001332  3.0593190000 16.7385940000 51.6437640000
293      17   2 -0.17999999999999999334  1.5070370000 18.2285700000 55.3242250000
294      17   2 -0.17999999999999999334  2.6708340000 15.2995260000 51.3410720000
295      17   3  0.05999999999999999778  1.5662960000 20.1050030000 54.2305950000
296      17   3  0.05999999999999999778  0.3981100000 18.9414690000 53.6006430000
297      17   3  0.02999999999999999889  3.4447630000 18.6891430000 53.3701530000
298      17   3  0.02999999999999999889  2.3510380000 19.2533150000 52.0821910000
299      17   3  0.02999999999999999889  3.0248540000 17.3521940000 50.7268990000
300      17   3  0.02999999999999999889  4.0912570000 16.7883800000 52.0342860000
301      17   3  0.05999999999999999778  2.5024210000 18.3320550000 55.7751810000
302      17   3  0.05999999999999999778  0.7678330000 18.5680300000 56.0598130000
303      17   3  0.05999999999999999778  1.3352930000 17.1647060000 55.1307270000
304      17   3  0.05999999999999999778  1.6499570000 15.2546120000 50.9465580000
305      17   3  0.05999999999999999778  3.3521480000 14.8673150000 50.5979460000
306      17   3  0.05999999999999999778  2.7146850000 14.6920370000 52.2515670000
307      18   1 -0.40000000000000002220 33.2465610000  8.0602280000 42.0308270000
308      18   2 -0.11999999999999999556 31.0443440000  7.8503210000 42.9545170000
309      18   2  0.14000000000000001332 32.4356930000  7.2339770000 42.8535500000
310      18   2  0.14000000000000001332 34.5635870000  7.5623600000 41.8456000000
311      18   2 -0.17999999999999999334 30.3228660000  7.9282590000 41.6051580000
312      18   2 -0.17999999999999999334 35.3239020000  8.5310440000 40.9528330000
313      18   3  0.05999999999999999778 30.4591100000  7.2498060000 43.6646910000
314      18   3  0.05999999999999999778 31.1411070000  8.8542160000 43.3889100000
315      18   3  0.02999999999999999889 32.3726160000  6.2193100000 42.4196080000
316      18   3  0.02999999999999999889 32.8898310000  7.1390670000 43.8548450000
317      18   3  0.02999999999999999889 35.0666060000  7.4565410000 42.8223850000
318      18   3  0.02999999999999999889 34.5244290000  6.5590950000 41.3853730000
319      18   3  0.05999999999999999778 30.1980840000  6.9292630000 41.1677850000
320      18   3  0.05999999999999999778 29.3268130000  8.3738000000 41.7152280000
321      18   3  0.05999999999999999778 30.8943650000  8.5359930000 40.8960780000
322      18   3  0.05999999999999999778 35.3677110000  9.5227910000 41.4158330000
323      18   3  0.05999999999999999778 36.3488010000  8.1763060000 40.7885990000
324      18   3  0.05999999999999999778 34.8265090000  8.6266520000 39.9815310000
325      19   1 -0.40000000000000002220  6.2782570000 10.8589810000  8.2126010000
326      19   2 -0.11999999999999999556  5.3436810000  8.6515890000  8.2443900000
327      19   2  0.14000000000000001332  5.8341970000  9.8030890000  7.3729740000
328      19   2  0.14000000000000001332  6.7336170000 12.0000340000  7.5002920000
329      19   2 -0.17999999999999999334  4.1381250000  9.0267700000  9.1122870000
330      19   2 -0.17999999999999999334  7.1780200000 13.0505980000  8.5064140000
331      19   3  0.05999999999999999778  5.0897110000  7.8114530000  7.5832270000