Generated by pymatgen.io.lammps.data.LammpsData

17842  atoms
17143  bonds
30548  angles
30057  dihedrals

   15  atom types
   14  bond types
   22  angle types
   20  dihedral types

-0.2500000000 60.2500000000  xlo xhi
-0.2500000000 60.2500000000  ylo yhi
-0.2500000000 60.2500000000  zlo zhi

Masses

1   15.99940
2   12.01070
3    1.00794
4   14.01000
5   32.06000
6   16.00000
7   12.01000
8   19.00000
9   16.00000
10  12.01000
11  12.01000
12   1.00800
13  32.06000
14  32.06000
15   6.94100

Pair Coeffs

1     0.1400  2.900000
2     0.0660  3.500000
3     0.0300  2.500000
4       0.17  3.249999
5       0.25  3.549340
6       0.21  2.959566
7      0.066  3.499450
8      0.053  2.948875
9       0.14  2.900000
10     0.066  3.500000
11     0.066  3.500000
12      0.03  2.500000
13  0.344001  3.590322
14  0.344001  3.590322
15  0.165057  1.506000

Bond Coeffs

1   320.00  1.410
2   268.00  1.529
3   340.00  1.090
4   441.80  1.323
5   235.40  1.818
6   637.10  1.442
7   372.00  1.570
8   320.00  1.410
9   320.00  1.380
10  268.00  1.529
11  340.00  1.090
12  340.00  1.090
13  157.87  2.133
14  154.36  2.117


Angle Coeffs

1    60.00  109.50
2    50.00  109.50
3    35.00  109.50
4    37.50  110.70
5    33.00  107.80
6    93.30  107.10
7    82.90  111.80
8   104.00  102.60
9   115.80  118.50
10   94.30  113.60
11   97.50  100.20
12   80.20  125.60
13   60.00  109.50
14   50.00  109.50
15   35.00  109.50
16   37.50  110.70
17   33.00  107.80
18   92.60  111.55
19   35.00  109.50
20   33.00  109.50
21   73.56  112.74
22   73.56  112.74


Dihedral Coeffs

1 3 0.062500000 1 0.000000000 -0.011000000 2 180.000000000 0.280500000 3 0.000000000
2 1 0.370500000 3 0.000000000
3 3 1.119000000 1 0.000000000 -1.163500000 2 180.000000000 -0.341500000 3 0.000000000
4 1 0.234000000 3 0.000000000
5 1 0.150000000 3 0.000000000
6 1 0.173400000 3 0.000000000
7 1 0.158000000 3 0.000000000
8 1 -0.001800000 3 0.000000000
9 3 3.916460000 1 0.000000000 -1.245000000 2 180.000000000 -0.381800000 3 0.000000000
10 3 0.062500000 1 0.000000000 -0.011000000 2 180.000000000 0.280500000 3 0.000000000
11 3 0.062500000 1 0.000000000 -0.011000000 2 180.000000000 0.280500000 3 0.000000000
12 1 0.370500000 3 0.000000000
13 1 0.370500000 3 0.000000000
14 3 -0.533500000 1 0.000000000 -0.783500000 2 180.000000000 0.337500000 3 0.000000000
15 1 0.370500000 3 0.000000000
16 3 1.119000000 1 0.000000000 -1.163500000 2 180.000000000 -0.341500000 3 0.000000000
17 1 0.234000000 3 0.000000000
18 1 0.150000000 3 0.000000000
19 4 5.431700000 1 0.000000000 -3.590000000 2 180.000000000 1.055600000 3 0.000000000 0.058320000 4 180.000000000
20 4 5.431700000 1 0.000000000 -3.590000000 2 180.000000000 1.055600000 3 0.000000000 0.058320000 4 180.000000000


Atoms

1         1   1 -0.40000000000000002220 27.6758500000  3.9119750000 34.2159470000
2         1   1 -0.40000000000000002220 25.1822120000  2.0845870000 32.3773630000
3         1   1 -0.40000000000000002220 29.8609150000  6.5718810000 35.2625140000
4         1   2  0.14000000000000001332 26.6923790000  3.7068770000 33.2159640000
5         1   2  0.14000000000000001332 28.2550160000  5.2063040000 34.1797760000
6         1   2  0.14000000000000001332 26.1656830000  2.2896850000 33.3773460000
7         1   2  0.14000000000000001332 29.2827010000  5.2784690000 35.2991860000
8         1   2  0.11000000000000000056 24.6083130000  0.7911230000 32.4198990000
9         1   2  0.11000000000000000056 30.8420240000  6.7695180000 36.2646790000
10        1   3  0.02999999999999999889 25.8660080000  4.4277170000 33.3246180000
11        1   3  0.02999999999999999889 27.1238430000  3.8327530000 32.2099390000
12        1   3  0.02999999999999999889 28.7457290000  5.3891290000 33.2103060000
13        1   3  0.02999999999999999889 27.4888360000  5.9840260000 34.3253150000
14        1   3  0.02999999999999999889 26.9929950000  1.5687770000 33.2690220000
15        1   3  0.02999999999999999889 25.7351610000  2.1637410000 34.3837010000
16        1   3  0.02999999999999999889 28.7906990000  5.0945680000 36.2690830000
17        1   3  0.02999999999999999889 30.0485340000  4.4996040000 35.1544040000
18        1   3  0.02999999999999999889 25.3686350000  0.0083770000 32.2627650000
19        1   3  0.02999999999999999889 24.1050580000  0.6066040000 33.3823810000
20        1   3  0.02999999999999999889 23.8706470000  0.7414240000 31.6140970000
21        1   3  0.02999999999999999889 30.4144750000  6.6571640000 37.2744250000
22        1   3  0.02999999999999999889 31.6783900000  6.0590950000 36.1538810000
23        1   3  0.02999999999999999889 31.2199300000  7.7889620000 36.1464700000
24        2   1 -0.40000000000000002220 14.8185130000  5.8645230000 29.7653450000
25        2   1 -0.40000000000000002220 18.2100130000  7.0405020000 29.9950590000
26        2   1 -0.40000000000000002220 11.4144620000  5.4945970000 28.6605810000
27        2   2  0.14000000000000001332 15.9455620000  6.6499530000 29.4159090000
28        2   2  0.14000000000000001332 13.6755080000  6.1335120000 28.9695970000
29        2   2  0.14000000000000001332 17.0829640000  6.2550720000 30.3444950000
30        2   2  0.14000000000000001332 12.5560990000  5.2253780000 29.4560530000
31        2   2  0.11000000000000000056 19.3468970000  6.7662940000 30.7928820000
32        2   2  0.11000000000000000056 10.2927880000  4.7058550000 29.0151300000
33        2   3  0.02999999999999999889 16.2385820000  6.4717430000 28.3686810000
34        2   3  0.02999999999999999889 15.7258610000  7.7236490000 29.5299260000
35        2   3  0.02999999999999999889 13.3696830000  7.1876260000 29.0666100000
36        2   3  0.02999999999999999889 13.8815890000  5.9355560000 27.9059200000
37        2   3  0.02999999999999999889 16.7891280000  6.4331170000 31.3922780000
38        2   3  0.02999999999999999889 17.3018490000  5.1812110000 30.2310330000
39        2   3  0.02999999999999999889 12.8634640000  4.1705090000 29.3592790000
40        2   3  0.02999999999999999889 12.3507430000  5.4224150000 30.5205240000
41        2   3  0.02999999999999999889 19.1506370000  6.9740630000 31.8576760000
42        2   3  0.02999999999999999889 19.6654480000  5.7166460000 30.6906640000
43        2   3  0.02999999999999999889 20.1497830000  7.4206100000 30.4419070000
44        2   3  0.02999999999999999889 10.5014920000  3.6305800000 28.8917010000
45        2   3  0.02999999999999999889  9.9865080000  4.8889810000 30.0587500000
46        2   3  0.02999999999999999889  9.4758440000  4.9918150000 28.3466380000
47        3   1 -0.40000000000000002220 42.1048340000 20.2775690000  7.8695190000
48        3   1 -0.40000000000000002220 39.2947430000 18.1918870000  8.7009560000
49        3   1 -0.40000000000000002220 45.1905970000 22.1037840000  8.1660330000
50        3   2  0.14000000000000001332 41.3002220000 19.4543120000  8.6966180000
51        3   2  0.14000000000000001332 43.2700910000 20.7607650000  8.5181550000
52        3   2  0.14000000000000001332 40.0993550000 19.0151440000  7.8738570000
53        3   2  0.14000000000000001332 44.0265010000 21.6213960000  7.5173640000
54        3   2  0.11000000000000000056 38.1341020000 17.7129820000  8.0469080000
55        3   2  0.11000000000000000056 45.9896080000 22.9249560000  7.3334300000
56        3   3  0.02999999999999999889 41.8634780000 18.5706570000  9.0375020000
57        3   3  0.02999999999999999889 40.9607680000 20.0062430000  9.5878170000
58        3   3  0.02999999999999999889 43.0054140000 21.3622230000  9.4026270000
59        3   3  0.02999999999999999889 43.9083550000 19.9275280000  8.8519220000
60        3   3  0.02999999999999999889 39.5363300000 19.8996900000  7.5325830000
61        3   3  0.02999999999999999889 40.4390400000 18.4641040000  6.9822670000
62        3   3  0.02999999999999999889 44.2903020000 21.0186850000  6.6320760000
63        3   3  0.02999999999999999889 43.3875910000 22.4542710000  7.1823910000
64        3   3  0.02999999999999999889 37.4849680000 18.5423470000  7.7209430000
65        3   3  0.02999999999999999889 38.3921910000 17.1001870000  7.1685250000
66        3   3  0.02999999999999999889 37.5918030000 17.0953820000  8.7683100000
67        3   3  0.02999999999999999889 46.3430080000 22.3754140000  6.4456690000
68        3   3  0.02999999999999999889 45.4355000000 23.8180190000  6.9989350000
69        3   3  0.02999999999999999889 46.8522520000 23.2401950000  7.9271660000
70        4   1 -0.40000000000000002220 12.0941790000 45.5060620000 48.1105510000
71        4   1 -0.40000000000000002220 10.9851130000 42.6030630000 46.2993270000
72        4   1 -0.40000000000000002220 12.1685310000 48.2157220000 50.4763760000
73        4   2  0.14000000000000001332 11.2197350000 44.4419430000 47.7755220000
74        4   2  0.14000000000000001332 11.6149240000 46.3166600000 49.1713420000
75        4   2  0.14000000000000001332 11.8595560000 43.6671820000 46.6343560000
76        4   2  0.14000000000000001332 12.6479450000 47.4062620000 49.4164100000
77        4   2  0.11000000000000000056 11.4700780000 41.7981820000 45.2404620000
78        4   2  0.11000000000000000056 13.0475960000 49.2762480000 50.8057720000
79        4   3  0.02999999999999999889 11.0638970000 43.7754130000 48.6390950000
80        4   3  0.02999999999999999889 10.2364220000 44.8267400000 47.4606910000
81        4   3  0.02999999999999999889 10.6465720000 46.7725580000 48.9095270000
82        4   3  0.02999999999999999889 11.4743870000 45.7221620000 50.0877950000
83        4   3  0.02999999999999999889 12.0157350000 44.3346420000 45.7706460000
84        4   3  0.02999999999999999889 12.8432100000 43.2833150000 46.9490500000
85        4   3  0.02999999999999999889 13.6170610000 46.9489230000 49.6776400000
86        4   3  0.02999999999999999889 12.7895860000 48.0002500000 48.4992360000
87        4   3  0.02999999999999999889 11.6014420000 42.3852750000 44.3165910000
88        4   3  0.02999999999999999889 12.4323620000 41.3292420000 45.5008250000
89        4   3  0.02999999999999999889 10.7256980000 41.0163290000 45.0656950000
90        4   3  0.02999999999999999889 14.0297270000 48.8980780000 51.1335140000
91        4   3  0.02999999999999999889 13.1978840000 49.9544130000 49.9490410000
92        4   3  0.02999999999999999889 12.5853500000 49.8324850000 51.6261260000
93        5   1 -0.40000000000000002220 18.3989850000  6.2544570000 10.7162490000
94        5   1 -0.40000000000000002220 17.3443460000  3.5672830000  8.5703690000
95        5   1 -0.40000000000000002220 18.2742270000  9.0629360000 12.9616430000
96        5   2  0.14000000000000001332 17.4722420000  5.4156800000 10.0477830000
97        5   2  0.14000000000000001332 17.7825180000  7.2513940000 11.5150700000
98        5   2  0.14000000000000001332 18.2710890000  4.4060590000  9.2388360000
99        5   2  0.14000000000000001332 18.8908180000  8.0671310000 12.1636600000
100       5   2  0.11000000000000000056 17.9666400000  2.5746110000  7.7756540000
101       5   2  0.11000000000000000056 19.2062680000  9.8965870000 13.6266960000
102       5   3  0.02999999999999999889 16.8270240000  4.8898910000 10.7699640000
103       5   3  0.02999999999999999889 16.8245170000  6.0030050000  9.3772650000
104       5   3  0.02999999999999999889 17.1465070000  7.9083550000 10.9002620000
105       5   3  0.02999999999999999889 17.1496140000  6.7960400000 12.2929840000
106       5   3  0.02999999999999999889 18.9169070000  4.9326490000  8.5166780000
107       5   3  0.02999999999999999889 18.9194140000  3.8195340000  9.9093770000
108       5   3  0.02999999999999999889 19.5273490000  7.4085380000 12.7782090000
109       5   3  0.02999999999999999889 19.5248410000  8.5216530000 11.3855100000
110       5   3  0.02999999999999999889 18.5923130000  3.0244370000  6.9871970000
111       5   3  0.02999999999999999889 18.5943890000  1.9064540000  8.3865380000
112       5   3  0.02999999999999999889 17.1681870000  1.9901500000  7.3100190000
113       5   3  0.02999999999999999889 19.8497500000  9.3171150000 14.3087180000
114       5   3  0.02999999999999999889 19.8470280000 10.4355980000 12.9087980000
115       5   3  0.02999999999999999889 18.6297770000 10.6222560000 14.2073120000
116       6   1 -0.40000000000000002220 39.3914010000 45.6720020000 13.1569130000
117       6   1 -0.40000000000000002220 40.1665120000 49.1730070000 13.4399840000
118       6   1 -0.40000000000000002220 37.8479870000 42.4729980000 13.7306390000
119       6   2  0.14000000000000001332 39.2761740000 46.9888230000 13.6687220000
120       6   2  0.14000000000000001332 38.5011460000 44.7507550000 13.7658310000
121       6   2  0.14000000000000001332 40.2817390000 47.8561850000 12.9281750000
122       6   2  0.14000000000000001332 38.7377780000 43.3929150000 13.1218590000
123       6   2  0.11000000000000000056 41.0574560000 50.0868560000 12.8273510000
124       6   2  0.11000000000000000056 37.9685080000 41.1598340000 13.2138720000
125       6   3  0.02999999999999999889 38.2582550000 47.3819010000 13.5149780000
126       6   3  0.02999999999999999889 39.4894400000 47.0095230000 14.7495470000
127       6   3  0.02999999999999999889 38.6849380000 44.6865570000 14.8503560000
128       6   3  0.02999999999999999889 37.4541830000 45.0580320000 13.6157810000
129       6   3  0.02999999999999999889 41.3000870000 47.4622040000 13.0819130000
130       6   3  0.02999999999999999889 40.0689020000 47.8345830000 11.8473440000
131       6   3  0.02999999999999999889 38.5543170000 43.4583860000 12.0362060000
132       6   3  0.02999999999999999889 39.7855020000 43.0860080000 13.2707750000
133       6   3  0.02999999999999999889 42.1078690000 49.7911350000 12.9843680000
134       6   3  0.02999999999999999889 40.8705990000 50.1650870000 11.7444620000
135       6   3  0.02999999999999999889 40.8860460000 51.0617420000 13.2922760000
136       6   3  0.02999999999999999889 37.7444520000 41.1295630000 12.1350340000
137       6   3  0.02999999999999999889 38.9818540000 40.7556670000 13.3759300000
138       6   3  0.02999999999999999889 37.2450250000 40.5376120000 13.7481600000
139       7   1 -0.40000000000000002220 55.4853940000 17.6301330000 20.4873260000
140       7   1 -0.40000000000000002220 55.0312580000 19.0248230000 17.2030350000
141       7   1 -0.40000000000000002220 55.0160830000 16.9532780000 23.9896870000
142       7   2  0.14000000000000001332 54.8839060000 18.4456720000 19.4961880000
143       7   2  0.14000000000000001332 54.8783190000 17.7535920000 21.7633550000
144       7   2  0.14000000000000001332 55.6327460000 18.2092840000 18.1941730000
145       7   2  0.14000000000000001332 55.6231400000 16.8294830000 22.7150310000
146       7   2  0.11000000000000000056 55.6418520000 18.8960050000 15.9322870000
147       7   2  0.11000000000000000056 55.6219400000 16.1352540000 24.9744420000
148       7   3  0.02999999999999999889 53.8202690000 18.1876220000 19.3681520000
149       7   3  0.02999999999999999889 54.9448650000 19.5101290000 19.7742330000
150       7   3  0.02999999999999999889 54.9389950000 18.7917960000 22.1274270000
151       7   3  0.02999999999999999889 53.8150980000 17.4691290000 21.7220420000
152       7   3  0.02999999999999999889 56.6970810000 18.4671740000 18.3229070000
153       7   3  0.02999999999999999889 55.5724860000 17.1446670000 17.9168250000
154       7   3  0.02999999999999999889 55.5624960000 15.7906450000 22.3493480000
155       7   3  0.02999999999999999889 56.6870920000 17.1131510000 22.7554290000
156       7   3  0.02999999999999999889 56.7036730000 19.1909170000 15.9644970000
157       7   3  0.02999999999999999889 55.5735120000 17.8625170000 15.5569000000
158       7   3  0.02999999999999999889 55.1053610000 19.5615660000 15.2502730000
159       7   3  0.02999999999999999889 55.5537600000 15.0676790000 24.7086510000
160       7   3  0.02999999999999999889 56.6839060000 16.3970510000 25.1164850000
161       7   3  0.02999999999999999889 55.0823860000 16.3072170000 25.9100500000
162       8   1 -0.40000000000000002220 46.2733030000  8.4546320000 48.5493450000
163       8   1 -0.40000000000000002220 48.7627850000 10.9945410000 48.0114720000
164       8   1 -0.40000000000000002220 43.5616880000  6.1681050000 47.9461440000
165       8   2  0.14000000000000001332 46.9969260000  9.4266150000 47.8139100000
166       8   2  0.14000000000000001332 45.2595920000  7.8140940000 47.7916300000
167       8   2  0.14000000000000001332 48.0391620000 10.0225580000 48.7469060000
168       8   2  0.14000000000000001332 44.5743180000  6.8077320000 48.7038030000
169       8   2  0.11000000000000000056 49.7729450000 11.6291280000 48.7737670000
170       8   2  0.11000000000000000056 42.8434970000  5.1981120000 48.6872830000
171       8   3  0.02999999999999999889 47.4926860000  8.9701080000 46.9420570000
172       8   3  0.02999999999999999889 46.3263340000 10.2203210000 47.4472610000
173       8   3  0.02999999999999999889 44.5230930000  8.5465990000 47.4240670000
174       8   3  0.02999999999999999889 45.6887040000  7.2961300000 46.9194830000
175       8   3  0.02999999999999999889 47.5426610000 10.4788080000 49.6193800000
176       8   3  0.02999999999999999889 48.7090130000  9.2285960000 49.1141750000
177       8   3  0.02999999999999999889 45.3124760000  6.0754270000 49.0718200000
178       8   3  0.02999999999999999889 44.1461240000  7.3256390000 49.5770250000
179       8   3  0.02999999999999999889 49.3482440000 12.1596730000 49.6418820000
180       8   3  0.02999999999999999889 50.5196810000 10.9036020000 49.1338800000
181       8   3  0.02999999999999999889 50.2635020000 12.3523760000 48.1163440000
182       8   3  0.02999999999999999889 43.5063770000  4.3942210000 49.0469470000
183       8   3  0.02999999999999999889 42.3343610000  5.6510040000 49.5545510000
184       8   3  0.02999999999999999889 42.0941430000  4.7712540000 48.0147410000
185       9   1 -0.40000000000000002220 28.5868150000 13.7993420000 21.1714890000
186       9   1 -0.40000000000000002220 29.1833870000 12.8643060000 24.5931520000
187       9   1 -0.40000000000000002220 28.9836540000 14.0951950000 17.6077970000
188       9   2  0.14000000000000001332 29.2699080000 13.1756060000 22.2455390000
189       9   2  0.14000000000000001332 29.2032910000 13.5863030000 19.9118850000
190       9   2  0.14000000000000001332 28.5002940000 13.4880410000 23.5191020000
191       9   2  0.14000000000000001332 28.3672180000 14.3084890000 18.8660100000
192       9   2  0.11000000000000000056 28.5622440000 13.0807230000 25.8467720000
193       9   2  0.11000000000000000056 28.2953570000 14.7208020000 16.5396980000
194       9   3  0.02999999999999999889 29.3210680000 12.0848490000 22.0974310000
195       9   3  0.02999999999999999889 30.3004620000 13.5565370000 22.3288630000
196       9   3  0.02999999999999999889 30.2313460000 13.9827530000 19.9066490000
197       9   3  0.02999999999999999889 29.2517680000 12.5118590000 19.6746390000
198       9   3  0.02999999999999999889 28.4489510000 14.5795940000 23.6666310000
199       9   3  0.02999999999999999889 27.4695560000 13.1079060000 23.4352000000
200       9   3  0.02999999999999999889 27.3381660000 13.9115070000 18.8725590000
201       9   3  0.02999999999999999889 28.3175610000 15.3831950000 19.1039900000
202       9   3  0.02999999999999999889 28.5215190000 14.1540040000 26.0955310000
203       9   3  0.02999999999999999889 27.5380000000 12.6753140000 25.8626950000
204       9   3  0.02999999999999999889 29.1652690000 12.5614070000 26.5968450000
205       9   3  0.02999999999999999889 27.2671840000 14.3355000000 16.4426910000
206       9   3  0.02999999999999999889 28.2516600000 15.8144680000 16.6756040000
207       9   3  0.02999999999999999889 28.8507580000 14.4954310000 15.6249360000
208      10   1 -0.40000000000000002220  4.0977160000 29.0078570000 26.6455820000
209      10   1 -0.40000000000000002220  6.6810470000 29.8865630000 24.3020290000
210      10   1 -0.40000000000000002220  1.5099550000 27.1481680000 28.3159000000
211      10   2  0.14000000000000001332  4.9587200000 28.8236800000 25.5347280000
212      10   2  0.14000000000000001332  3.2314890000 27.9084230000 26.8756330000
213      10   2  0.14000000000000001332  5.8200440000 30.0707400000 25.4128830000
214      10   2  0.14000000000000001332  2.3751180000 28.2470290000 28.0865830000
215      10   2  0.11000000000000000056  7.5428540000 30.9873410000 24.0788810000
216      10   2  0.11000000000000000056  0.6532690000 27.3391910000 29.4274630000
217      10   3  0.02999999999999999889  5.5997270000 27.9387990000 25.6775620000
218      10   3  0.02999999999999999889  4.3789540000 28.6782080000 24.6090920000
219      10   3  0.02999999999999999889  2.5862110000 27.7281570000 26.0008660000
220      10   3  0.02999999999999999889  3.8061380000 26.9890940000 27.0697400000
221      10   3  0.02999999999999999889  5.1781900000 30.9559670000 25.2704540000
222      10   3  0.02999999999999999889  6.3989640000 30.2165580000 26.3389240000
223      10   3  0.02999999999999999889  3.0219460000 28.4280580000 28.9614700000
224      10   3  0.02999999999999999889  1.8011730000 29.1674670000 27.8930010000
225      10   3  0.02999999999999999889  6.9734690000 31.9084680000 23.8720050000
226      10   3  0.02999999999999999889  8.1996680000 31.1651400000 24.9452920000
227      10   3  0.02999999999999999889  8.1567500000 30.7419730000 23.2077530000
228      10   3  0.02999999999999999889  1.2265910000 27.4731830000 30.3593190000
229      10   3  0.02999999999999999889 -0.0000930000 28.2163220000 29.2851790000
230      10   3  0.02999999999999999889  0.0343310000 26.4416040000 29.5129330000
231      11   1 -0.40000000000000002220  9.4496780000 46.5567400000 33.1495460000
232      11   1 -0.40000000000000002220  7.2081580000 48.6894470000 34.9839700000
233      11   1 -0.40000000000000002220 11.2994320000 45.1086710000 30.4244000000
234      11   2  0.14000000000000001332  8.5099990000 47.6027620000 33.3286740000
235      11   2  0.14000000000000001332  9.8769030000 46.4069980000 31.8052670000
236      11   2  0.14000000000000001332  8.1478360000 47.6434250000 34.8048420000
237      11   2  0.14000000000000001332 10.8729620000 45.2577020000 31.7677180000
238      11   2  0.11000000000000000056  6.7868060000 48.8333300000 36.3278380000
239      11   2  0.11000000000000000056 12.2384080000 44.0622300000 30.2533540000
240      11   3  0.02999999999999999889  8.9372830000 48.5709510000 33.0215200000
241      11   3  0.02999999999999999889  7.6046110000 47.4239100000 32.7266960000
242      11   3  0.02999999999999999889  9.0233900000 46.1828330000 31.1454460000
243      11   3  0.02999999999999999889 10.3562830000 47.3289110000 31.4401150000
244      11   3  0.02999999999999999889  7.7207720000 46.6742730000 35.1118410000
245      11   3  0.02999999999999999889  9.0534440000 47.8213140000 35.4066650000
246      11   3  0.02999999999999999889 11.7265350000 45.4826730000 32.4290700000
247      11   3  0.02999999999999999889 10.3938630000 44.3356320000 32.1342460000
248      11   3  0.02999999999999999889  6.2951740000 47.9175640000 36.6954590000
249      11   3  0.02999999999999999889  7.6340000000 49.0700340000 36.9910990000
250      11   3  0.02999999999999999889  6.0705290000 49.6593410000 36.3521710000
251      11   3  0.02999999999999999889 13.1521670000 44.2407530000 30.8434230000
252      11   3  0.02999999999999999889 11.8125250000 43.0881890000 30.5472120000
253      11   3  0.02999999999999999889 12.4970310000 44.0342810000 29.1910990000
254      12   1 -0.40000000000000002220 52.8107500000 10.0061880000 21.8268150000
255      12   1 -0.40000000000000002220 54.0298810000 12.0840100000 19.1557960000
256      12   1 -0.40000000000000002220 51.6153290000  7.1253130000 23.6202600000
257      12   2  0.14000000000000001332 53.2296720000 10.3093140000 20.5070180000
258      12   2  0.14000000000000001332 52.4234070000  8.6524520000 21.9982560000
259      12   2  0.14000000000000001332 53.6109590000 11.7808840000 20.4755930000
260      12   2  0.14000000000000001332 52.0021440000  8.4780350000 23.4496490000
261      12   2  0.11000000000000000056 54.4153950000 13.4363700000 18.9923390000
262      12   2  0.11000000000000000056 51.1986290000  6.8299070000 24.9412690000
263      12   3  0.02999999999999999889 54.0959270000  9.6921930000 20.2188000000
264      12   3  0.02999999999999999889 52.4198600000 10.1177360000 19.7848020000
265      12   3  0.02999999999999999889 51.5830400000  8.3979560000 21.3325890000
266      12   3  0.02999999999999999889 53.2584020000  7.9723740000 21.7672960000
267      12   3  0.02999999999999999889 52.7440000000 12.3979670000 20.7645200000
268      12   3  0.02999999999999999889 54.4200660000 11.9724230000 21.1985180000
269      12   3  0.02999999999999999889 52.8437270000  8.7337560000 24.1151800000
270      12   3  0.02999999999999999889 51.1676600000  9.1593000000 23.6811820000
271      12   3  0.02999999999999999889 53.5800080000 14.1219390000 19.2105060000
272      12   3  0.02999999999999999889 55.2637220000 13.6939070000 19.6463280000
273      12   3  0.02999999999999999889 54.7170090000 13.5594430000 17.9483950000
274      12   3  0.02999999999999999889 52.0080880000  7.0076580000 25.6680360000
275      12   3  0.02999999999999999889 50.3236870000  7.4354790000 25.2315180000
276      12   3  0.02999999999999999889 50.9242930000  5.7714270000 24.9615450000
277      13   1 -0.40000000000000002220  5.7674810000 51.2510880000 40.4424120000
278      13   1 -0.40000000000000002220  2.6429450000 51.5755710000 38.6902850000
279      13   1 -0.40000000000000002220  9.2990740000 50.9895900000 41.0783250000
280      13   2  0.14000000000000001332  4.9217720000 51.3902260000 39.3134030000
281      13   2  0.14000000000000001332  7.1454990000 51.1948540000 40.1108470000
282      13   2  0.14000000000000001332  3.4886540000 51.4364340000 39.8192940000
283      13   2  0.14000000000000001332  7.9223980000 51.0456590000 41.4103050000
284      13   2  0.11000000000000000056  1.2694510000 51.6315450000 39.0288120000
285      13   2  0.11000000000000000056 10.1376950000 50.8511170000 42.2112470000
286      13   3  0.02999999999999999889  5.1535320000 52.3152060000 38.7611310000
287      13   3  0.02999999999999999889  5.0468930000 50.5409190000 38.6226680000
288      13   3  0.02999999999999999889  7.3550200000 50.3381760000 39.4503160000
289      13   3  0.02999999999999999889  7.4621240000 52.1118990000 39.5894620000
290      13   3  0.02999999999999999889  3.2573590000 50.5108890000 40.3722470000
291      13   3  0.02999999999999999889  3.3639980000 52.2851760000 40.5107110000
292      13   3  0.02999999999999999889  7.7114140000 51.9032250000 42.0711010000
293      13   3  0.02999999999999999889  7.6047750000 50.1289380000 41.9326370000
294      13   3  0.02999999999999999889  0.9434710000 50.7110030000 39.5404870000
295      13   3  0.02999999999999999889  1.0510330000 52.4934800000 39.6792310000
296      13   3  0.02999999999999999889  0.7131480000 51.7380300000 38.0933300000
297      13   3  0.02999999999999999889 10.0267120000 51.7037500000 42.9009630000
298      13   3  0.02999999999999999889  9.9192710000 49.9205500000 42.7615380000
299      13   3  0.02999999999999999889 11.1677160000 50.8174500000 41.8452220000
300      14   1 -0.40000000000000002220 35.6868790000 15.7035700000 34.5286010000
301      14   1 -0.40000000000000002220 32.6815420000 14.9729950000 32.6922530000
302      14   1 -0.40000000000000002220 38.4808160000 15.3338030000 36.7651380000
303      14   2  0.14000000000000001332 34.5798280000 14.9235830000 34.1099090000
304      14   2  0.14000000000000001332 36.5172980000 15.0436380000 35.4703680000
305      14   2  0.14000000000000001332 33.7885930000 15.7529820000 33.1109450000
306      14   2  0.14000000000000001332 37.6515120000 15.9937710000 35.8242420000
307      14   2  0.11000000000000000056 31.8577190000 15.6376810000 31.7521860000
308      14   2  0.11000000000000000056 39.5848420000 16.1189130000 37.1782980000
309      14   3  0.02999999999999999889 34.9162710000 13.9875350000 33.6356440000
310      14   3  0.02999999999999999889 33.9393680000 14.6599340000 34.9668770000
311      14   3  0.02999999999999999889 35.9503630000 14.7844750000 36.3789470000
312      14   3  0.02999999999999999889 36.9276760000 14.1127660000 35.0483100000
313      14   3  0.02999999999999999889 33.4525600000 16.6897200000 33.5858060000
314      14   3  0.02999999999999999889 34.4294630000 16.0173210000 32.2545730000
315      14   3  0.02999999999999999889 38.2179110000 16.2532060000 34.9140370000
316      14   3  0.02999999999999999889 37.2410080000 16.9256050000 36.2452700000
317      14   3  0.02999999999999999889 31.4340850000 16.5644610000 32.1730030000
318      14   3  0.02999999999999999889 32.4156410000 15.8885260000 30.8359520000
319      14   3  0.02999999999999999889 31.0429710000 14.9532060000 31.4999610000
320      14   3  0.02999999999999999889 40.2368070000 16.3761580000 36.3275470000
321      14   3  0.02999999999999999889 39.2546710000 17.0517850000 37.6653530000
322      14   3  0.02999999999999999889 40.1521340000 15.5209190000 37.8970720000
323      15   1 -0.40000000000000002220  9.3934780000  4.1864400000 39.1118240000
324      15   1 -0.40000000000000002220 12.1405430000  1.8917640000 38.7567740000
325      15   1 -0.40000000000000002220  6.4006800000  6.0471400000 38.3866530000
326      15   2  0.14000000000000001332 10.1916110000  3.2083720000 38.4671430000
327      15   2  0.14000000000000001332  8.2738460000  4.5961380000 38.3433170000
328      15   2  0.14000000000000001332 11.3424100000  2.8698320000 39.4014540000
329      15   2  0.14000000000000001332  7.5191860000  5.6382840000 39.1550090000
330      15   2  0.11000000000000000056 13.2555550000  1.4873620000 39.5297080000
331      15   2  0.11000000000000000056  5.6078530000  7.0238710000 39.0373390000
332      15   3  0.02999999999999999889  9.6039580000  2.3010200000 38.2534100000