Generated by pymatgen.io.lammps.data.LammpsData

17867  atoms
16985  bonds
29840  angles
29323  dihedrals
 1046  impropers

   17  atom types
   16  bond types
   25  angle types
   21  dihedral types
    2  improper types

-0.2500000000 60.2500000000  xlo xhi
-0.2500000000 60.2500000000  ylo yhi
-0.2500000000 60.2500000000  zlo zhi

Masses

1   15.99940
2   14.00670
3   12.01070
4   12.01070
5    1.00794
6   14.01000
7   32.06000
8   16.00000
9   12.01000
10  19.00000
11  16.00000
12  12.01000
13  12.01000
14   1.00800
15  32.06000
16  32.06000
17   6.94100

Pair Coeffs

1     0.2100  2.960000
2     0.1700  3.250000
3     0.1050  3.750000
4     0.0660  3.500000
5     0.0300  2.500000
6       0.17  3.249999
7       0.25  3.549340
8       0.21  2.959566
9      0.066  3.499450
10     0.053  2.948875
11      0.14  2.900000
12     0.066  3.500000
13     0.066  3.500000
14      0.03  2.500000
15  0.344001  3.590322
16  0.344001  3.590322
17  0.165057  1.506000

Bond Coeffs

1   570.00  1.229
2   490.00  1.335
3   337.00  1.449
4   317.00  1.522
5   340.00  1.090
6   441.80  1.323
7   235.40  1.818
8   637.10  1.442
9   372.00  1.570
10  320.00  1.410
11  320.00  1.380
12  268.00  1.529
13  340.00  1.090
14  340.00  1.090
15  157.87  2.133
16  154.36  2.117


Angle Coeffs

1    50.00  121.90
2    50.00  118.00
3    80.00  122.90
4    80.00  120.40
5    70.00  116.60
6    35.00  109.50
7    33.00  107.80
8    35.00  109.50
9    93.30  107.10
10   82.90  111.80
11  104.00  102.60
12  115.80  118.50
13   94.30  113.60
14   97.50  100.20
15   80.20  125.60
16   60.00  109.50
17   50.00  109.50
18   35.00  109.50
19   37.50  110.70
20   33.00  107.80
21   92.60  111.55
22   35.00  109.50
23   33.00  109.50
24   73.56  112.74
25   73.56  112.74


Dihedral Coeffs

1 1 3.044500000 2 180.000000000
2 2 1.498500000 1 0.000000000 1.539500000 2 180.000000000
3 1 0.000000000 1 0.000000000
4 1 0.000000000 1 0.000000000
5 1 0.000000000 1 0.000000000
6 1 0.000000000 1 0.000000000
7 1 0.173400000 3 0.000000000
8 1 0.158000000 3 0.000000000
9 1 -0.001800000 3 0.000000000
10 3 3.916460000 1 0.000000000 -1.245000000 2 180.000000000 -0.381800000 3 0.000000000
11 3 0.062500000 1 0.000000000 -0.011000000 2 180.000000000 0.280500000 3 0.000000000
12 3 0.062500000 1 0.000000000 -0.011000000 2 180.000000000 0.280500000 3 0.000000000
13 1 0.370500000 3 0.000000000
14 1 0.370500000 3 0.000000000
15 3 -0.533500000 1 0.000000000 -0.783500000 2 180.000000000 0.337500000 3 0.000000000
16 1 0.370500000 3 0.000000000
17 3 1.119000000 1 0.000000000 -1.163500000 2 180.000000000 -0.341500000 3 0.000000000
18 1 0.234000000 3 0.000000000
19 1 0.150000000 3 0.000000000
20 4 5.431700000 1 0.000000000 -3.590000000 2 180.000000000 1.055600000 3 0.000000000 0.058320000 4 180.000000000
21 4 5.431700000 1 0.000000000 -3.590000000 2 180.000000000 1.055600000 3 0.000000000 0.058320000 4 180.000000000


Improper Coeffs

1 1.000000000 -1 2
2 10.500000000 -1 2


Atoms

1         1   1 -0.50000000000000000000  6.1113170000 54.8098200000 41.5899000000
2         1   2 -0.14000000000000001332  4.0331290000 54.1246590000 40.9488970000
3         1   3  0.50000000000000000000  4.8925170000 54.8324090000 41.7580000000
4         1   4 -0.11000000000000000056  2.5995050000 54.0012940000 41.1668970000
5         1   4 -0.11000000000000000056  4.5770820000 53.2527130000 39.9150340000
6         1   4 -0.17999999999999999334  4.2821980000 55.6703530000 42.8758350000
7         1   5  0.05999999999999999778  2.0727390000 54.0979650000 40.2089460000
8         1   5  0.05999999999999999778  2.3451850000 53.0197980000 41.5961880000
9         1   5  0.05999999999999999778  2.2270860000 54.7780160000 41.8335000000
10        1   5  0.05999999999999999778  5.6435530000 53.4490600000 39.8063460000
11        1   5  0.05999999999999999778  4.4315140000 52.1959920000 40.1826480000
12        1   5  0.05999999999999999778  4.0688670000 53.4429890000 38.9610610000
13        1   5  0.05999999999999999778  3.7302920000 55.0528010000 43.5944030000
14        1   5  0.05999999999999999778  5.1042990000 56.1659000000 43.3948460000
15        1   5  0.05999999999999999778  3.5968010000 56.4326390000 42.4887200000
16        2   1 -0.50000000000000000000 26.7143430000 36.9233700000  0.1075610000
17        2   2 -0.14000000000000001332 28.2535450000 35.3519710000  0.7081900000
18        2   3  0.50000000000000000000 26.9655050000 35.7749230000  0.4711940000
19        2   4 -0.11000000000000000056 28.6131500000 34.0550020000  1.2618830000
20        2   4 -0.11000000000000000056 29.3505210000 36.3071940000  0.6120680000
21        2   4 -0.17999999999999999334 25.8425500000 34.7611770000  0.6595770000
22        2   5  0.05999999999999999778 29.4805340000 33.6532480000  0.7226810000
23        2   5  0.05999999999999999778 28.8838470000 34.1376800000  2.3259280000
24        2   5  0.05999999999999999778 27.7984000000 33.3384800000  1.1663240000
25        2   5  0.05999999999999999778 28.9854190000 37.2260600000  0.1536880000
26        2   5  0.05999999999999999778 29.7524720000 36.5380060000  1.6093780000
27        2   5  0.05999999999999999778 30.1588380000 35.8867700000  0.0001700000
28        2   5  0.05999999999999999778 25.7893530000 34.3979440000  1.6927960000
29        2   5  0.05999999999999999778 24.9064700000 35.2655530000  0.4143280000
30        2   5  0.05999999999999999778 25.9600900000 33.8928430000  0.0016340000
31        3   1 -0.50000000000000000000 46.4953020000 49.0967910000 17.4792130000
32        3   2 -0.14000000000000001332 44.3603840000 49.4350510000 16.7533350000
33        3   3  0.50000000000000000000 45.4584860000 49.7584560000 17.5173290000
34        3   4 -0.11000000000000000056 43.0641980000 50.0907380000 16.8427700000
35        3   4 -0.11000000000000000056 44.3856020000 48.2271590000 15.9376100000
36        3   4 -0.17999999999999999334 45.3586170000 50.9871070000 18.4143440000
37        3   5  0.05999999999999999778 42.6632710000 50.2508590000 15.8337520000
38        3   5  0.05999999999999999778 42.3431570000 49.4727960000 17.4000390000
39        3   5  0.05999999999999999778 43.1388340000 51.0614280000 17.3311790000
40        3   5  0.05999999999999999778 45.4030910000 47.8379770000 15.9063190000
41        3   5  0.05999999999999999778 43.7200870000 47.4600530000 16.3596330000
42        3   5  0.05999999999999999778 44.0484140000 48.4577500000 14.9189420000
43        3   5  0.05999999999999999778 44.5667850000 50.8811510000 19.1654000000
44        3   5  0.05999999999999999778 46.3170860000 51.0940450000 18.9249230000
45        3   5  0.05999999999999999778 45.1596560000 51.8986330000 17.8396770000
46        4   1 -0.50000000000000000000 57.3696000000 19.6600330000 13.4972120000
47        4   2 -0.14000000000000001332 55.2341550000 20.2073350000 12.9145200000
48        4   3  0.50000000000000000000 56.1614330000 19.4443130000 13.5868730000
49        4   4 -0.11000000000000000056 53.8059800000 19.9309230000 12.8705600000
50        4   4 -0.11000000000000000056 55.6894590000 21.2476900000 12.0005150000
51        4   4 -0.17999999999999999334 55.6415080000 18.3168920000 14.4716290000
52        4   5  0.05999999999999999778 53.2468490000 20.8687560000 12.9816570000
53        4   5  0.05999999999999999778 53.5179600000 19.4761650000 11.9100690000
54        4   5  0.05999999999999999778 53.5020350000 19.2627330000 13.6752290000
55        4   5  0.05999999999999999778 56.7595240000 21.4015640000 12.1383850000
56        4   5  0.05999999999999999778 55.4994870000 20.9575440000 10.9568720000
57        4   5  0.05999999999999999778 55.1539160000 22.1837900000 12.2041470000
58        4   5  0.05999999999999999778 55.0873260000 17.5672310000 13.8943930000
59        4   5  0.05999999999999999778 56.5087460000 17.8388070000 14.9300190000
60        4   5  0.05999999999999999778 54.9820560000 18.6888670000 15.2637570000
61        5   1 -0.50000000000000000000 13.1773170000  7.8875470000 10.5414440000
62        5   2 -0.14000000000000001332 14.7755290000  6.9481440000 11.8690120000
63        5   3  0.50000000000000000000 14.3494810000  7.5521180000 10.7080630000
64        5   4 -0.11000000000000000056 16.1105660000  6.4099510000 12.0835950000
65        5   4 -0.11000000000000000056 13.8024170000  6.6138520000 12.9016530000
66        5   4 -0.17999999999999999334 15.3890810000  7.8121320000  9.6237110000
67        5   5  0.05999999999999999778 16.4543630000  6.6719830000 13.0923770000
68        5   5  0.05999999999999999778 16.1156900000  5.3122440000 11.9980650000
69        5   5  0.05999999999999999778 16.8261070000  6.8164040000 11.3700480000
70        5   5  0.05999999999999999778 12.8522750000  7.0929150000 12.6661660000
71        5   5  0.05999999999999999778 13.6526820000  5.5256900000 12.9559530000
72        5   5  0.05999999999999999778 14.1593270000  6.9648830000 13.8783550000
73        5   5  0.05999999999999999778 15.8397390000  6.8816360000  9.2584770000
74        5   5  0.05999999999999999778 14.8769590000  8.3048420000  8.7956070000
75        5   5  0.05999999999999999778 16.1966460000  8.4624690000  9.9781230000
76        6   1 -0.50000000000000000000  6.8628840000 59.2486570000 18.9008150000
77        6   2 -0.14000000000000001332  6.2705230000 57.0500820000 19.0215340000
78        6   3  0.50000000000000000000  7.1215770000 58.1031250000 19.2683420000
79        6   4 -0.11000000000000000056  6.5695550000 55.6553550000 19.3102160000
80        6   4 -0.11000000000000000056  5.0677180000 57.2716070000 18.2282930000
81        6   4 -0.17999999999999999334  8.4061010000 57.8092800000 20.0350530000
82        6   5  0.05999999999999999778  5.6828320000 55.1706840000 19.7383670000
83        6   5  0.05999999999999999778  6.8454090000 55.1096510000 18.3945670000
84        6   5  0.05999999999999999778  7.3827160000 55.5600910000 20.0285800000
85        6   5  0.05999999999999999778  4.9154090000 58.3432500000 18.1013690000
86        6   5  0.05999999999999999778  5.1640010000 56.8024190000 17.2383140000
87        6   5  0.05999999999999999778  4.1992630000 56.8343220000 18.7373310000
88        6   5  0.05999999999999999778  9.0493480000 57.1018610000 19.4983030000
89        6   5  0.05999999999999999778  8.9390800000 58.7547370000 20.1483410000
90        6   5  0.05999999999999999778  8.2040080000 57.3951430000 21.0292150000
91        7   1 -0.50000000000000000000 34.8107170000 41.8552960000 10.6816060000
92        7   2 -0.14000000000000001332 35.7953650000 43.6771770000 11.6357620000
93        7   3  0.50000000000000000000 35.0237270000 43.0672350000 10.6731350000
94        7   4 -0.11000000000000000056 36.1946370000 45.0765430000 11.6163770000
95        7   4 -0.11000000000000000056 36.4541180000 42.8617910000 12.6487950000
96        7   4 -0.17999999999999999334 34.4181010000 43.9505350000  9.5881490000
97        7   5  0.05999999999999999778 36.1047610000 45.4980740000 12.6257000000
98        7   5  0.05999999999999999778 37.2417990000 45.1872560000 11.2946680000
99        7   5  0.05999999999999999778 35.5637460000 45.6642410000 10.9508380000
100       7   5  0.05999999999999999778 36.0597270000 41.8468640000 12.6029170000
101       7   5  0.05999999999999999778 37.5401760000 42.8335280000 12.4780760000
102       7   5  0.05999999999999999778 36.2696210000 43.2835010000 13.6451260000
103       7   5  0.05999999999999999778 35.1896330000 44.4539630000  8.9934990000
104       7   5  0.05999999999999999778 33.8336980000 43.3031350000  8.9323020000
105       7   5  0.05999999999999999778 33.7586560000 44.7191550000 10.0065560000
106       8   1 -0.50000000000000000000 39.9597730000 45.8731670000 14.4996030000
107       8   2 -0.14000000000000001332 38.7841600000 47.8263170000 14.4513560000
108       8   3  0.50000000000000000000 39.8342340000 47.0404440000 14.8683100000
109       8   4 -0.11000000000000000056 38.5019280000 49.1657800000 14.9455290000
110       8   4 -0.11000000000000000056 37.7394290000 47.2433170000 13.6184720000
111       8   4 -0.17999999999999999334 40.8618270000 47.6705930000 15.8016690000
112       8   5  0.05999999999999999778 38.2156210000 49.8137080000 14.1072470000
113       8   5  0.05999999999999999778 37.6700070000 49.1568760000 15.6667300000
114       8   5  0.05999999999999999778 39.3733690000 49.6072210000 15.4272670000
115       8   5  0.05999999999999999778 38.0638160000 46.2620700000 13.2725620000
116       8   5  0.05999999999999999778 36.8053590000 47.1329270000 14.1883760000
117       8   5  0.05999999999999999778 37.5452070000 47.8921650000 12.7548590000
118       8   5  0.05999999999999999778 40.4112270000 47.9908150000 16.7486260000
119       8   5  0.05999999999999999778 41.6183880000 46.9122100000 16.0096540000
120       8   5  0.05999999999999999778 41.3482430000 48.5410620000 15.3473640000
121       9   1 -0.50000000000000000000 50.4542310000 29.6962800000 22.3945620000
122       9   2 -0.14000000000000001332 49.4549370000 31.6859690000 22.8862360000
123       9   3  0.50000000000000000000 49.5427130000 30.4986850000 22.1957600000
124       9   4 -0.11000000000000000056 48.4840570000 32.7353320000 22.6137460000
125       9   4 -0.11000000000000000056 50.5132670000 32.0520700000 23.8194840000
126       9   4 -0.17999999999999999334 48.4540440000 30.1934110000 21.1731160000
127       9   5  0.05999999999999999778 48.0969570000 33.1324020000 23.5608410000
128       9   5  0.05999999999999999778 48.9433800000 33.5683460000 22.0592980000
129       9   5  0.05999999999999999778 47.6391180000 32.3600260000 22.0379200000
130       9   5  0.05999999999999999778 51.1604960000 31.1904510000 23.9820690000
131       9   5  0.05999999999999999778 51.1134650000 32.8821370000 23.4192140000
132       9   5  0.05999999999999999778 50.0753280000 32.3686980000 24.7747370000
133       9   5  0.05999999999999999778 48.4295450000 30.9376220000 20.3682190000
134       9   5  0.05999999999999999778 48.6786270000 29.2159530000 20.7430830000
135       9   5  0.05999999999999999778 47.4594810000 30.1586710000 21.6317520000
136      10   1 -0.50000000000000000000 24.3923660000 14.5826910000 51.1869710000
137      10   2 -0.14000000000000001332 23.2894530000 16.3853100000 52.0433260000
138      10   3  0.50000000000000000000 23.3633900000 15.0662280000 51.6577590000
139      10   4 -0.11000000000000000056 22.0748240000 17.0548180000 52.4842950000
140      10   4 -0.11000000000000000056 24.4290480000 17.2644220000 51.8119570000
141      10   4 -0.17999999999999999334 22.1208300000 14.2035150000 51.8474020000
142      10   5  0.05999999999999999778 22.3005440000 17.6941160000 53.3473410000
143      10   5  0.05999999999999999778 21.6608800000 17.6932330000 51.6884440000
144      10   5  0.05999999999999999778 21.3108380000 16.3402810000 52.7878020000
145      10   5  0.05999999999999999778 25.2912680000 16.6636730000 51.5231600000
146      10   5  0.05999999999999999778 24.2074750000 17.9839860000 51.0103340000
147      10   5  0.05999999999999999778 24.6605050000 17.8240060000 52.7272970000
148      10   5  0.05999999999999999778 21.2713860000 14.5768440000 51.2631240000
149      10   5  0.05999999999999999778 22.3696250000 13.1976930000 51.5050380000
150      10   5  0.05999999999999999778 21.8129420000 14.1541930000 52.8978690000
151      11   1 -0.50000000000000000000 24.6845620000 50.9560210000 12.0480590000
152      11   2 -0.14000000000000001332 24.0540630000 50.0003230000 10.0761800000
153      11   3  0.50000000000000000000 24.3174400000 49.9595310000 11.4263920000
154      11   4 -0.11000000000000000056 23.7435060000 48.8394890000  9.2551800000
155      11   4 -0.11000000000000000056 24.2964690000 51.2324130000  9.3357490000
156      11   4 -0.17999999999999999334 24.1238370000 48.6287720000 12.1445790000
157      11   5  0.05999999999999999778 22.9284990000 49.0867080000  8.5629770000
158      11   5  0.05999999999999999778 24.6146370000 48.5306140000  8.6568240000
159      11   5  0.05999999999999999778 23.4224210000 47.9937660000  9.8618190000
160      11   5  0.05999999999999999778 24.4818030000 52.0426490000 10.0406570000
161      11   5  0.05999999999999999778 25.1695100000 51.1231550000  8.6759550000
162      11   5  0.05999999999999999778 23.4221260000 51.4747970000  8.7182320000
163      11   5  0.05999999999999999778 24.7860780000 47.8502680000 11.7474910000
164      11   5  0.05999999999999999778 24.3618030000 48.7912060000 13.1970890000
165      11   5  0.05999999999999999778 23.0923470000 48.2673910000 12.0662200000
166      12   1 -0.50000000000000000000 33.9382470000 27.1384970000 26.1451710000
167      12   2 -0.14000000000000001332 32.3800760000 25.5539390000 25.6348070000
168      12   3  0.50000000000000000000 32.8186360000 26.6607270000 26.3253060000
169      12   4 -0.11000000000000000056 31.1258000000 24.8604920000 25.8876810000
170      12   4 -0.11000000000000000056 33.2907670000 24.8695100000 24.7252770000
171      12   4 -0.17999999999999999334 31.8584030000 27.2974970000 27.3236400000
172      12   5  0.05999999999999999778 30.6536370000 24.5956990000 24.9329840000
173      12   5  0.05999999999999999778 31.2921280000 23.9305150000 26.4531710000
174      12   5  0.05999999999999999778 30.4279560000 25.4844530000 26.4444910000
175      12   5  0.05999999999999999778 34.1769160000 25.4859850000 24.5755290000
176      12   5  0.05999999999999999778 33.5949850000 23.8973020000 25.1396790000
177      12   5  0.05999999999999999778 32.7954650000 24.6969050000 23.7612040000
178      12   5  0.05999999999999999778 31.5875360000 26.6043090000 28.1288920000
179      12   5  0.05999999999999999778 32.3669910000 28.1602260000 27.7570310000
180      12   5  0.05999999999999999778 30.9333830000 27.6358620000 26.8434790000
181      13   1 -0.50000000000000000000  5.4574700000  2.8320070000 57.2061270000
182      13   2 -0.14000000000000001332  4.6990550000  2.6233330000 55.0659270000
183      13   3  0.50000000000000000000  4.7693580000  3.2640110000 56.2819430000
184      13   4 -0.11000000000000000056  3.8104350000  3.0025860000 53.9775600000
185      13   4 -0.11000000000000000056  5.3868250000  1.3507250000 54.8856870000
186      13   4 -0.17999999999999999334  3.9710380000  4.5519310000 56.4496890000
187      13   5  0.05999999999999999778  4.3510700000  2.9429310000 53.0243270000
188      13   5  0.05999999999999999778  2.9429420000  2.3271320000 53.9182380000
189      13   5  0.05999999999999999778  3.4476870000  4.0230630000 54.0932900000
190      13   5  0.05999999999999999778  6.0505510000  1.1798090000 55.7330250000
191      13   5  0.05999999999999999778  4.6637800000  0.5244440000 54.8229780000
192      13   5  0.05999999999999999778  5.9726170000  1.3713210000 53.9577980000
193      13   5  0.05999999999999999778  2.8942510000  4.3835840000 56.3292780000
194      13   5  0.05999999999999999778  4.1597130000  4.9206970000 57.4592440000
195      13   5  0.05999999999999999778  4.2758050000  5.3194150000 55.7294140000
196      14   1 -0.50000000000000000000 33.9010250000 56.6151490000 48.2268470000
197      14   2 -0.14000000000000001332 33.4136740000 54.3918880000 48.3639340000
198      14   3  0.50000000000000000000 34.1101460000 55.5172100000 48.7416660000
199      14   4 -0.11000000000000000056 33.6958980000 53.0437640000 48.8339680000
200      14   4 -0.11000000000000000056 32.4602510000 54.4747440000 47.2643130000
201      14   4 -0.17999999999999999334 35.1530770000 55.3665600000 49.8433900000
202      14   5  0.05999999999999999778 32.7529950000 52.5249160000 49.0489810000
203      14   5  0.05999999999999999778 34.2371150000 52.4617140000 48.0719950000
204      14   5  0.05999999999999999778 34.2883900000 53.0536820000 49.7478650000
205      14   5  0.05999999999999999778 32.2922110000 55.5222550000 47.0148930000
206      14   5  0.05999999999999999778 32.8449400000 53.9511370000 46.3770060000
207      14   5  0.05999999999999999778 31.5105700000 54.0095710000 47.5580350000
208      14   5  0.05999999999999999778 35.9534920000 54.6743590000 49.5561560000
209      14   5  0.05999999999999999778 35.5854810000 56.3532970000 50.0170730000
210      14   5  0.05999999999999999778 34.7116390000 55.0036080000 50.7783270000
211      15   1 -0.50000000000000000000 12.6600850000 34.5984170000 30.6560380000
212      15   2 -0.14000000000000001332 10.4232170000 34.9225980000 30.3551660000
213      15   3  0.50000000000000000000 11.6532470000 35.2752890000 30.8618610000
214      15   4 -0.11000000000000000056  9.1726630000 35.6000620000 30.6636720000
215      15   4 -0.11000000000000000056 10.2816640000 33.6686360000 29.6253790000
216      15   4 -0.17999999999999999334 11.7380930000 36.5557680000 31.6848850000
217      15   5  0.05999999999999999778  8.5768800000 35.7060910000 29.7480850000
218      15   5  0.05999999999999999778  8.5777490000 35.0258420000 31.3907560000
219      15   5  0.05999999999999999778  9.3456930000 36.5966590000 31.0676620000
220      15   5  0.05999999999999999778 11.2713700000 33.2644160000 29.4136830000
221      15   5  0.05999999999999999778  9.7136540000 32.9368170000 30.2180600000
222      15   5  0.05999999999999999778  9.7464790000 33.8435680000 28.6832910000
223      15   5  0.05999999999999999778 11.1136860000 36.5049540000 32.5847980000
224      15   5  0.05999999999999999778 12.7799520000 36.6794070000 31.9849380000
225      15   5  0.05999999999999999778 11.4288260000 37.4345920000 31.1080570000
226      16   1 -0.50000000000000000000 53.8227660000 51.2348860000 44.6960320000
227      16   2 -0.14000000000000001332 51.8157290000 52.1995240000 45.1864110000
228      16   3  0.50000000000000000000 52.6011980000 51.2651220000 44.5507740000
229      16   4 -0.11000000000000000056 50.3887370000 52.3761030000 44.9616150000
230      16   4 -0.11000000000000000056 52.4472690000 53.2403870000 45.9881650000
231      16   4 -0.17999999999999999334 51.9035430000 50.2431600000 43.6602310000
232      16   5  0.05999999999999999778 49.8830120000 52.5384000000 45.9220320000
233      16   5  0.05999999999999999778 50.1917090000 53.2508000000 44.3225630000
234      16   5  0.05999999999999999778 49.9449640000 51.4982650000 44.4938330000
235      16   5  0.05999999999999999778 53.5000540000 52.9953470000 46.1271740000
236      16   5  0.05999999999999999778 52.3683650000 54.2167330000 45.4881780000
237      16   5  0.05999999999999999778 51.9534150000 53.3095030000 46.9658590000
238      16   5  0.05999999999999999778 51.3764730000 50.7208810000 42.8257910000
239      16   5  0.05999999999999999778 52.6745740000 49.5833610000 43.2590260000
240      16   5  0.05999999999999999778 51.1776010000 49.6413940000 44.2184370000
241      17   1 -0.50000000000000000000 34.5803890000 49.6171860000 40.4404660000
242      17   2 -0.14000000000000001332 33.6143150000 51.0366200000 38.9400990000
243      17   3  0.50000000000000000000 33.6666490000 50.3899540000 40.1538490000
244      17   4 -0.11000000000000000056 32.5033330000 51.8588570000 38.4843950000
245      17   4 -0.11000000000000000056 34.6180170000 50.7388890000 37.9257090000
246      17   4 -0.17999999999999999334 32.5523180000 50.6738280000 41.1547860000
247      17   5  0.05999999999999999778 32.8910560000 52.7601970000 37.9927090000
248      17   5  0.05999999999999999778 31.8796180000 51.3171810000 37.7564730000
249      17   5  0.05999999999999999778 31.8721860000 52.1752750000 39.3137840000
250      17   5  0.05999999999999999778 35.4191630000 50.1534080000 38.3763780000
251      17   5  0.05999999999999999778 34.1752150000 50.1653700000 37.0983830000
252      17   5  0.05999999999999999778 35.0279410000 51.6730530000 37.5209230000
253      17   5  0.05999999999999999778 31.5702100000 50.3776150000 40.7674470000
254      17   5  0.05999999999999999778 32.7675420000 50.0920840000 42.0525840000
255      17   5  0.05999999999999999778 32.5036900000 51.7350420000 41.4234290000
256      18   1 -0.50000000000000000000 16.9429160000 16.3334200000 23.8254750000
257      18   2 -0.14000000000000001332 16.1871710000 17.6496300000 22.1238190000
258      18   3  0.50000000000000000000 16.2894250000 17.3072640000 23.4528910000
259      18   4 -0.11000000000000000056 15.3313560000 18.7044740000 21.6014150000
260      18   4 -0.11000000000000000056 16.7949490000 16.7916920000 21.1140690000
261      18   4 -0.17999999999999999334 15.5723610000 18.1905600000 24.4676830000
262      18   5  0.05999999999999999778 15.8735180000 19.2705340000 20.8332130000
263      18   5  0.05999999999999999778 14.4236180000 18.2877210000 21.1381330000
264      18   5  0.05999999999999999778 15.0325680000 19.4020720000 22.3827200000
265      18   5  0.05999999999999999778 17.4409910000 16.0640740000 21.6049110000
266      18   5  0.05999999999999999778 16.0219340000 16.2580170000 20.5421390000
267      18   5  0.05999999999999999778 17.3870440000 17.3979800000 20.4166510000
268      18   5  0.05999999999999999778 14.4879600000 18.2013110000 24.3056040000
269      18   5  0.05999999999999999778 15.7770690000 17.7787290000 25.4572690000
270      18   5  0.05999999999999999778 15.9294560000 19.2259620000 24.4340080000
271      19   1 -0.50000000000000000000 37.1712170000 35.9776710000 46.3754070000
272      19   2 -0.14000000000000001332 37.9567860000 37.8280220000 47.4516400000
273      19   3  0.50000000000000000000 37.1846130000 37.2018250000 46.4999410000
274      19   4 -0.11000000000000000056 38.1213640000 39.2691040000 47.5708800000
275      19   4 -0.11000000000000000056 38.8528570000 37.0339820000 48.2832670000
276      19   4 -0.17999999999999999334 36.3212070000 38.0793660000 45.6006920000
277      19   5  0.05999999999999999778 38.0850280000 39.5565130000 48.6294520000
278      19   5  0.05999999999999999778 39.0917440000 39.5938780000 47.1644480000
279      19   5  0.05999999999999999778 37.3301930000 39.8073500000 47.0505990000
280      19   5  0.05999999999999999778 38.6236970000 35.9771490000 48.1479290000
281      19   5  0.05999999999999999778 39.9014900000 37.2130570000 48.0044010000
282      19   5  0.05999999999999999778 38.7222310000 37.3065820000 49.3383400000
283      19   5  0.05999999999999999778 36.9262380000 38.7704400000 45.0018070000
284      19   5  0.05999999999999999778 35.7747930000 37.4156230000 44.9286310000
285      19   5  0.05999999999999999778 35.6011970000 38.6720190000 46.1760680000
286      20   1 -0.50000000000000000000 31.0465360000 21.2462560000 19.8957850000
287      20   2 -0.14000000000000001332 28.7917880000 21.2280170000 20.2348620000
288      20   3  0.50000000000000000000 29.9610990000 20.6840740000 19.7542960000
289      20   4 -0.11000000000000000056 27.4628240000 20.6866570000 19.9923610000
290      20   4 -0.11000000000000000056 28.8167500000 22.5473690000 20.8543250000
291      20   4 -0.17999999999999999334 29.8751460000 19.3375870000 19.0445240000
292      20   5  0.05999999999999999778 26.8729720000 20.7334210000 20.9166910000
293      20   5  0.05999999999999999778 26.9315870000 21.2660890000 19.2214220000
294      20   5  0.05999999999999999778 27.5058120000 19.6455800000 19.6750850000
295      20   5  0.05999999999999999778 29.8518000000 22.8426070000 21.0253000000
296      20   5  0.05999999999999999778 28.3336700000 23.2907210000 20.2035370000
297      20   5  0.05999999999999999778 28.2789850000 22.5207700000 21.8107000000
298      20   5  0.05999999999999999778 29.2476600000 19.3884880000 18.1467600000
299      20   5  0.05999999999999999778 30.8891020000 19.0609560000 18.7509960000
300      20   5  0.05999999999999999778 29.4693980000 18.5560520000 19.6966600000
301      21   1 -0.50000000000000000000 35.8244150000 22.9690660000 13.2331470000
302      21   2 -0.14000000000000001332 33.6201430000 23.4615610000 12.9203740000
303      21   3  0.50000000000000000000 34.6475670000 22.7940440000 13.5472120000
304      21   4 -0.11000000000000000056 32.2049940000 23.2102050000 13.1488360000
305      21   4 -0.11000000000000000056 33.9169390000 24.3378390000 11.7938320000
306      21   4 -0.17999999999999999334 34.2827570000 21.8285170000 14.6692040000
307      21   5  0.05999999999999999778 31.6659520000 24.1648640000 13.1994320000
308      21   5  0.05999999999999999778 31.7687390000 22.6174490000 12.3299190000
309      21   5  0.05999999999999999778 32.0379980000 22.6814700000 14.0863350000
310      21   5  0.05999999999999999778 34.9944040000 24.4899150000 11.7332700000
311      21   5  0.05999999999999999778 33.5631960000 23.8927740000 10.8524250000
312      21   5  0.05999999999999999778 33.4160660000 25.3047050000 11.9311240000
313      21   5  0.05999999999999999778 33.6470230000 21.0094110000 14.3125290000
314      21   5  0.05999999999999999778 35.2149830000 21.4103370000 15.0524400000
315      21   5  0.05999999999999999778 33.7572580000 22.3322210000 15.4882530000
316      22   1 -0.50000000000000000000 26.9611780000 11.4586660000 38.0767850000
317      22   2 -0.14000000000000001332 24.9086550000 11.3690940000 37.0876830000
318      22   3  0.50000000000000000000 26.1646010000 11.9070380000 37.2529710000
319      22   4 -0.11000000000000000056 23.8731570000 11.9256040000 36.2297430000
320      22   4 -0.11000000000000000056 24.4684550000 10.2933280000 37.9674540000
321      22   4 -0.17999999999999999334 26.5532220000 13.0820050000 36.3626780000
322      22   5  0.05999999999999999778 23.3686290000 11.1143490000 35.6895440000
323      22   5  0.05999999999999999778 23.1145830000 12.4636450000 36.8191320000
324      22   5  0.05999999999999999778 24.2890330000 12.6108130000 35.4922550000
325      22   5  0.05999999999999999778 25.3219000000  9.9246220000 38.5361480000
326      22   5  0.05999999999999999778 23.6994520000 10.6537140000 38.6661830000
327      22   5  0.05999999999999999778 24.0418870000  9.4756680000 37.3724540000
328      22   5  0.05999999999999999778 25.8989590000 13.9476950000 36.5202580000
329      22   5  0.05999999999999999778 27.5757890000 13.3607370000 36.6223970000