Generated by pymatgen.io.lammps.data.LammpsData

15802  atoms
15103  bonds
27488  angles
30057  dihedrals

   16  atom types
   14  bond types
   22  angle types
   17  dihedral types

-0.2500000000 60.2500000000  xlo xhi
-0.2500000000 60.2500000000  ylo yhi
-0.2500000000 60.2500000000  zlo zhi

Masses

1   28.0855
2   19.0000
3   12.0100
4    1.0080
5   14.0100
6   32.0600
7   16.0000
8   12.0100
9   19.0000
10  16.0000
11  12.0100
12  12.0100
13   1.0080
14  32.0600
15  32.0600
16   6.9410

Pair Coeffs

1   0.100000  4.000000
2   0.061000  2.940000
3   0.062000  3.250000
4   0.030000  2.500000
5   0.170000  3.249999
6   0.250000  3.549340
7   0.210000  2.959566
8   0.066000  3.499450
9   0.053000  2.948875
10  0.140000  2.900000
11  0.066000  3.500000
12  0.066000  3.500000
13  0.030000  2.500000
14  0.344001  3.590322
15  0.344001  3.590322
16  0.165057  1.506000

Bond Coeffs

1   175.00  1.901
2   367.00  1.332
3   340.00  1.090
4   441.80  1.323
5   235.40  1.818
6   637.10  1.442
7   372.00  1.570
8   320.00  1.410
9   320.00  1.380
10  268.00  1.529
11  340.00  1.090
12  340.00  1.090
13  157.87  2.133
14  154.36  2.117


Angle Coeffs

1    45.00  110.770
2    65.00  111.000
3    77.00  109.100
4    35.00  112.081
5    33.00  107.800
6    93.30  107.100
7    82.90  111.800
8   104.00  102.600
9   115.80  118.500
10   94.30  113.600
11   97.50  100.200
12   80.20  125.600
13   60.00  109.500
14   50.00  109.500
15   35.00  109.500
16   37.50  110.700
17   33.00  107.800
18   92.60  111.550
19   35.00  109.500
20   33.00  109.500
21   73.56  112.740
22   73.56  112.740


Dihedral Coeffs

1   1 0.15 3 0
2   1 0.08 3 0
3   1 0.1734 3 0
4   1 0.158 3 0
5   1 -0.0018 3 0
6   3 3.91646 1 0 -1.245 2 180 -0.3818 3 0 
7   3 0.0625 1 0 -0.011 2 180 0.2805 3 0
8   3 0.0625 1 0 -0.011 2 180 0.2805 3 0
9   1 0.3705 3 0
10  1 0.3705 3 0
11  3 -0.5335  1 0 -0.7835 2 180 0.3375 3 0
12  1 0.3705 3 0
13  3 1.119 1 0 -1.1635 2 180 -0.3415 3 0
14  1 0.234 3 0
15  1 0.15 3 0
16  4 5.4317 1 0 -3.59 2 180 1.0556 3 0 0.05832 4 180
17  4 5.4317 1 0 -3.59 2 180 1.0556 3 0 0.05832 4 180


Atoms

1         1   1  0.72319999999999995399 48.4632430000 42.8849850000 10.6151640000
2         1   2 -0.20000000000000001110 48.9935560000 43.7558360000  8.0273980000
3         1   2 -0.20000000000000001110 46.8587720000 43.7348390000  8.5082080000
4         1   2 -0.20000000000000001110 48.1446200000 45.3169190000  9.3039310000
5         1   3  0.43750000000000000000 48.0982090000 43.9738810000  9.0393290000
6         1   3 -0.51029999999999997584 48.3563110000 41.0963190000 10.0425520000
7         1   3 -0.51029999999999997584 47.1332000000 43.3271530000 11.8684610000
8         1   3 -0.51029999999999997584 50.1895000000 43.3638270000 11.1862320000
9         1   4  0.10780000000000000693 48.5521230000 40.4089460000 10.8751780000
10        1   4  0.10780000000000000693 47.3614840000 40.8669740000  9.6442900000
11        1   4  0.10780000000000000693 49.0917550000 40.8885170000  9.2560800000
12        1   4  0.10780000000000000693 47.2648240000 42.7537040000 12.7947360000
13        1   4  0.10780000000000000693 47.1701560000 44.3925150000 12.1247660000
14        1   4  0.10780000000000000693 46.1319260000 43.1079010000 11.4777200000
15        1   4  0.10780000000000000693 50.9341870000 43.1653770000 10.4057710000
16        1   4  0.10780000000000000693 50.2403590000 44.4297900000 11.4390250000
17        1   4  0.10780000000000000693 50.4769840000 42.7926930000 12.0778740000
18        2   1  0.72319999999999995399 47.5443770000 42.4410600000  3.6399510000
19        2   2 -0.20000000000000001110 49.0743910000 44.1258200000  5.2389470000
20        2   2 -0.20000000000000001110 47.0165890000 44.8225290000  4.9763230000
21        2   2 -0.20000000000000001110 47.4434820000 43.1538070000  6.3263920000
22        2   3  0.43750000000000000000 47.7813370000 43.6949040000  5.1143750000
23        2   3 -0.51029999999999997584 48.0609520000 43.3676260000  2.0864810000
24        2   3 -0.51029999999999997584 45.7209770000 41.9822650000  3.6394950000
25        2   3 -0.51029999999999997584 48.6628950000 40.9782530000  4.0200640000
26        2   4  0.10780000000000000693 47.9592180000 42.7284580000  1.2003640000
27        2   4  0.10780000000000000693 47.4407280000 44.2577300000  1.9317930000
28        2   4  0.10780000000000000693 49.1070430000 43.6907950000  2.1485570000
29        2   4  0.10780000000000000693 45.4980710000 41.2728950000  2.8324880000
30        2   4  0.10780000000000000693 45.4308960000 41.5144300000  4.5876710000
31        2   4  0.10780000000000000693 45.0897360000 42.8671820000  3.4920010000
32        2   4  0.10780000000000000693 49.7122930000 41.2896340000  4.0898280000
33        2   4  0.10780000000000000693 48.3863110000 40.5060950000  4.9705030000
34        2   4  0.10780000000000000693 48.5898560000 40.2174530000  3.2328430000
35        3   1  0.72319999999999995399 50.2894610000 19.6262660000 50.8878920000
36        3   2 -0.20000000000000001110 49.5916960000 20.9103220000 53.2544230000
37        3   2 -0.20000000000000001110 48.3309750000 21.4832820000 51.5599550000
38        3   2 -0.20000000000000001110 48.0459320000 19.5420370000 52.5294270000
39        3   3  0.43750000000000000000 49.0046260000 20.4284740000 52.1158420000
40        3   3 -0.51029999999999997584 51.5066020000 20.9919930000 50.4497090000
41        3   3 -0.51029999999999997584 49.2916290000 19.0396990000 49.4061520000
42        3   3 -0.51029999999999997584 51.0923810000 18.2115150000 51.8308480000
43        3   4  0.10780000000000000693 52.2728630000 20.6225230000 49.7565810000
44        3   4  0.10780000000000000693 50.9984930000 21.8361600000 49.9700250000
45        3   4  0.10780000000000000693 52.0170810000 21.3683980000 51.3443200000
46        3   4  0.10780000000000000693 49.9437460000 18.5709740000 48.6583590000
47        3   4  0.10780000000000000693 48.5378160000 18.3015670000 49.7044500000
48        3   4  0.10780000000000000693 48.7728180000 19.8759870000 48.9216350000
49        3   4  0.10780000000000000693 51.6023950000 18.5747520000 52.7314070000
50        3   4  0.10780000000000000693 50.3463710000 17.4697080000 52.1406180000
51        3   4  0.10780000000000000693 51.8360120000 17.7002150000 51.2067870000
52        4   1  0.72319999999999995399 53.3479150000 38.4770940000  1.9606970000
53        4   2 -0.20000000000000001110 52.3608280000 40.9808910000  1.2586960000
54        4   2 -0.20000000000000001110 51.5409460000 40.2297210000  3.1434930000
55        4   2 -0.20000000000000001110 53.5824570000 41.0151490000  3.0735400000
56        4   3  0.43750000000000000000 52.6762150000 40.2594340000  2.3781720000
57        4   3 -0.51029999999999997584 51.9703140000 37.6153200000  1.0129600000
58        4   3 -0.51029999999999997584 53.7119280000 37.6612150000  3.6151210000
59        4   3 -0.51029999999999997584 54.8932850000 38.7369600000  0.9216250000
60        4   4  0.10780000000000000693 52.2679410000 36.5964720000  0.7346500000
61        4   4  0.10780000000000000693 51.0581060000 37.5459830000  1.6162510000
62        4   4  0.10780000000000000693 51.7260020000 38.1569150000  0.0912310000
63        4   4  0.10780000000000000693 54.0978520000 36.6441040000  3.4712340000
64        4   4  0.10780000000000000693 54.4618130000 38.2284260000  4.1790330000
65        4   4  0.10780000000000000693 52.8066230000 37.5924290000  4.2307420000
66        4   4  0.10780000000000000693 54.6627810000 39.2825970000 -0.0015260000
67        4   4  0.10780000000000000693 55.6484990000 39.3096490000  1.4733900000
68        4   4  0.10780000000000000693 55.3397920000 37.7749060000  0.6406420000
69        5   1  0.72319999999999995399 11.4823670000 46.3886380000 54.9670550000
70        5   2 -0.20000000000000001110 11.7644280000 45.7970920000 52.2639710000
71        5   2 -0.20000000000000001110  9.9245180000 44.9927820000 53.1338790000
72        5   2 -0.20000000000000001110 10.0794520000 47.1286110000 52.6824490000
73        5   3  0.43750000000000000000 10.7802240000 46.0610920000 53.1776680000
74        5   3 -0.51029999999999997584 12.4028860000 44.8223460000 55.4549280000
75        5   3 -0.51029999999999997584  9.9864340000 46.7211430000 56.0565070000
76        5   3 -0.51029999999999997584 12.6163770000 47.8804690000 54.8126780000
77        5   4  0.10780000000000000693 12.8355390000 44.9219860000 56.4584080000
78        5   4  0.10780000000000000693 11.7326530000 43.9553850000 55.4625070000
79        5   4  0.10780000000000000693 13.2213630000 44.6111420000 54.7562970000
80        5   4  0.10780000000000000693 10.2941860000 46.9171200000 57.0914160000
81        5   4  0.10780000000000000693  9.4253580000 47.5937770000 55.7018850000
82        5   4  0.10780000000000000693  9.3045840000 45.8619090000 56.0663960000
83        5   4  0.10780000000000000693 13.4370020000 47.6834280000 54.1121000000
84        5   4  0.10780000000000000693 12.0670830000 48.7584400000 54.4518340000
85        5   4  0.10780000000000000693 13.0579930000 48.1359520000 55.7840540000
86        6   1  0.72319999999999995399 49.1221590000 34.5791070000 29.3489370000
87        6   2 -0.20000000000000001110 51.3418980000 34.9854900000 27.7229740000
88        6   2 -0.20000000000000001110 50.2543980000 33.1459790000 27.2513150000
89        6   2 -0.20000000000000001110 49.4471320000 35.0840060000 26.6333110000
90        6   3  0.43750000000000000000 50.0872440000 34.4422690000 27.6601260000
91        6   3 -0.51029999999999997584 50.1585700000 33.6475520000 30.6125440000
92        6   3 -0.51029999999999997584 47.4462740000 33.7797070000 29.0528820000
93        6   3 -0.51029999999999997584 48.9956500000 36.4170310000 29.7249720000
94        6   4  0.10780000000000000693 49.6843190000 33.6760760000 31.6016660000
95        6   4  0.10780000000000000693 50.2791660000 32.5962150000 30.3278710000
96        6   4  0.10780000000000000693 51.1578540000 34.0892860000 30.7068920000
97        6   4  0.10780000000000000693 46.8326130000 33.8135020000 29.9619650000
98        6   4  0.10780000000000000693 46.8968420000 34.2965830000 28.2572570000
99        6   4  0.10780000000000000693 47.5549800000 32.7280280000 28.7605590000
100       6   4  0.10780000000000000693 49.9894970000 36.8719060000 29.8167240000
101       6   4  0.10780000000000000693 48.4535000000 36.9460150000 28.9318670000
102       6   4  0.10780000000000000693 48.4607210000 36.5855290000 30.6680130000
103       7   1  0.72319999999999995399 52.1436210000  7.5727730000 14.8136290000
104       7   2 -0.20000000000000001110 51.8256740000 10.0548390000 13.5993770000
105       7   2 -0.20000000000000001110 50.1455750000  9.5061270000 14.8897660000
106       7   2 -0.20000000000000001110 52.0304650000 10.1804180000 15.7741180000
107       7   3  0.43750000000000000000 51.5064270000  9.4150420000 14.7663970000
108       7   3 -0.51029999999999997584 51.3189180000  6.7041150000 13.3631310000
109       7   3 -0.51029999999999997584 51.6035510000  6.8814600000 16.4766650000
110       7   3 -0.51029999999999997584 54.0131890000  7.6673860000 14.6371780000
111       7   4  0.10780000000000000693 51.6265860000  5.6519770000 13.3137990000
112       7   4  0.10780000000000000693 50.2272000000  6.7310810000 13.4543190000
113       7   4  0.10780000000000000693 51.5908110000  7.1779600000 12.4122660000
114       7   4  0.10780000000000000693 51.9244060000  5.8379350000 16.5873990000
115       7   4  0.10780000000000000693 52.0377780000  7.4559790000 17.3033630000
116       7   4  0.10780000000000000693 50.5120290000  6.9096650000 16.5819400000
117       7   4  0.10780000000000000693 54.2981760000  8.1444480000 13.6915280000
118       7   4  0.10780000000000000693 54.4583380000  8.2460730000 15.4555490000
119       7   4  0.10780000000000000693 54.4571150000  6.6641420000 14.6544870000
120       8   1  0.72319999999999995399 40.9790730000 40.7411400000 26.9773430000
121       8   2 -0.20000000000000001110 43.6873980000 40.1144730000 27.0690710000
122       8   2 -0.20000000000000001110 43.2348290000 42.0978090000 27.8755970000
123       8   2 -0.20000000000000001110 42.7811620000 40.3083970000 29.0510750000
124       8   3  0.43750000000000000000 42.7542260000 40.8189810000 27.7804460000
125       8   3 -0.51029999999999997584 41.1588100000 41.4774900000 25.2556790000
126       8   3 -0.51029999999999997584 39.8622080000 41.7638620000 28.0917640000
127       8   3 -0.51029999999999997584 40.5055540000 38.9217820000 26.9444040000
128       8   4  0.10780000000000000693 40.1969900000 41.4711530000 24.7275210000
129       8   4  0.10780000000000000693 41.5091890000 42.5147220000 25.3033600000
130       8   4  0.10780000000000000693 41.8755060000 40.9055910000 24.6541160000
131       8   4  0.10780000000000000693 38.8337960000 41.7737470000 27.7091100000
132       8   4  0.10780000000000000693 39.8382310000 41.3557740000 29.1090850000
133       8   4  0.10780000000000000693 40.2074530000 42.8032960000 28.1524380000
134       8   4  0.10780000000000000693 41.2182750000 38.3376800000 26.3494970000
135       8   4  0.10780000000000000693 40.4849950000 38.5006450000 27.9568210000
136       8   4  0.10780000000000000693 39.5098900000 38.7865730000 26.5036800000
137       9   1  0.72319999999999995399 15.7937540000  6.9677230000 12.6906160000
138       9   2 -0.20000000000000001110 17.8769600000  8.1638210000 14.0926670000
139       9   2 -0.20000000000000001110 17.3712800000  6.1692730000 14.8376440000
140       9   2 -0.20000000000000001110 18.4991230000  6.3887190000 12.9750190000
141       9   3  0.43750000000000000000 17.4635540000  6.9207100000 13.6964770000
142       9   3 -0.51029999999999997584 14.5172090000  7.7272300000 13.8448370000
143       9   3 -0.51029999999999997584 15.4042890000  5.1814390000 12.2515370000
144       9   3 -0.51029999999999997584 16.1309590000  8.0321990000 11.1778190000
145       9   4  0.10780000000000000693 13.5385340000  7.7932720000 13.3529800000
146       9   4  0.10780000000000000693 14.3970340000  7.1256880000 14.7529100000
147       9   4  0.10780000000000000693 14.8100690000  8.7401280000 14.1462820000
148       9   4  0.10780000000000000693 14.4705140000  5.1158480000 11.6788990000
149       9   4  0.10780000000000000693 16.2030170000  4.7407600000 11.6433520000
150       9   4  0.10780000000000000693 15.2883830000  4.5679060000 13.1534470000
151       9   4  0.10780000000000000693 16.4300390000  9.0472540000 11.4663930000
152       9   4  0.10780000000000000693 16.9335670000  7.6045030000 10.5649060000
153       9   4  0.10780000000000000693 15.2345470000  8.1117670000 10.5501390000
154      10   1  0.72319999999999995399  4.8927450000 42.6832440000 11.7931610000
155      10   2 -0.20000000000000001110  4.1157020000 42.3805900000  9.1397200000
156      10   2 -0.20000000000000001110  2.4376810000 42.7711650000 10.4890240000
157      10   2 -0.20000000000000001110  3.7791210000 44.4005820000  9.9101460000
158      10   3  0.43750000000000000000  3.7529410000 43.0768470000 10.2608020000
159      10   3 -0.51029999999999997584  4.7189850000 40.8362450000 12.1046830000
160      10   3 -0.51029999999999997584  4.2299250000 43.7245680000 13.2114680000
161      10   3 -0.51029999999999997584  6.6343840000 43.1738780000 11.2819430000
162      10   4  0.10780000000000000693  5.3349940000 40.5260470000 12.9581460000
163      10   4  0.10780000000000000693  3.6796160000 40.5680740000 12.3253340000
164      10   4  0.10780000000000000693  5.0398940000 40.2562240000 11.2310740000
165      10   4  0.10780000000000000693  4.8196070000 43.5622080000 14.1225490000
166      10   4  0.10780000000000000693  4.2716430000 44.7932780000 12.9702800000
167      10   4  0.10780000000000000693  3.1872000000 43.4692590000 13.4369460000
168      10   4  0.10780000000000000693  6.9652650000 42.6038490000 10.4052190000
169      10   4  0.10780000000000000693  6.6868130000 44.2403130000 11.0314760000
170      10   4  0.10780000000000000693  7.3467100000 42.9839030000 12.0945730000
171      11   1  0.72319999999999995399 47.0074410000 30.0122490000  2.5417830000
172      11   2 -0.20000000000000001110 45.9541050000 31.5352110000  0.4664000000
173      11   2 -0.20000000000000001110 46.0587810000 29.3996930000  0.0000000000
174      11   2 -0.20000000000000001110 44.5022750000 30.1521320000  1.3418950000
175      11   3  0.43750000000000000000 45.8255140000 30.2882210000  1.0156480000
176      11   3 -0.51029999999999997584 48.7562150000 30.2450000000  1.8888950000
177      11   3 -0.51029999999999997584 46.6818610000 28.2588010000  3.1373480000
178      11   3 -0.51029999999999997584 46.5258110000 31.3132480000  3.8109580000
179      11   4  0.10780000000000000693 49.4923910000 30.1074470000  2.6909010000
180      11   4  0.10780000000000000693 48.9826920000 29.5219370000  1.0972020000
181      11   4  0.10780000000000000693 48.8934370000 31.2519500000  1.4768030000
182      11   4  0.10780000000000000693 47.3121730000 28.0180830000  4.0027470000
183      11   4  0.10780000000000000693 45.6352820000 28.1315030000  3.4382160000
184      11   4  0.10780000000000000693 46.8989260000 27.5262340000  2.3502480000
185      11   4  0.10780000000000000693 46.6538790000 32.3255850000  3.4086730000
186      11   4  0.10780000000000000693 45.4780630000 31.1999950000  4.1145410000
187      11   4  0.10780000000000000693 47.1477320000 31.2282070000  4.7108740000
188      12   1  0.72319999999999995399 18.3713290000 57.9738410000 31.7634350000
189      12   2 -0.20000000000000001110 17.6298310000 58.0209600000 29.0831160000
190      12   2 -0.20000000000000001110 15.9622710000 58.4135490000 30.4447470000
191      12   2 -0.20000000000000001110 17.4512870000 59.9705840000 30.0599990000
192      12   3  0.43750000000000000000 17.3036550000 58.6247880000 30.2672600000
193      12   3 -0.51029999999999997584 18.0325680000 56.1267810000 31.8741470000
194      12   3 -0.51029999999999997584 17.7693960000 58.9146280000 33.2760080000
195      12   3 -0.51029999999999997584 20.1595520000 58.3605580000 31.3297520000
196      12   4  0.10780000000000000693 18.6006550000 55.6757630000 32.6975230000
197      12   4  0.10780000000000000693 16.9693780000 55.9292610000 32.0516380000
198      12   4  0.10780000000000000693 18.3215960000 55.6157820000 30.9478960000
199      12   4  0.10780000000000000693 18.3227010000 58.6063170000 34.1720830000
200      12   4  0.10780000000000000693 17.9081620000 59.9949400000 33.1506110000
201      12   4  0.10780000000000000693 16.7038620000 58.7296370000 33.4596250000
202      12   4  0.10780000000000000693 20.4594420000 57.8589070000 30.4015970000
203      12   4  0.10780000000000000693 20.3089960000 59.4386490000 31.1950250000
204      12   4  0.10780000000000000693 20.8348140000 58.0244580000 32.1265740000
205      13   1  0.72319999999999995399 53.8541310000 48.4173960000 53.3952770000
206      13   2 -0.20000000000000001110 56.5029670000 47.9447780000 52.6906830000
207      13   2 -0.20000000000000001110 55.3455200000 48.8994430000 51.0976180000
208      13   2 -0.20000000000000001110 56.0132490000 50.0733300000 52.8197340000
209      13   3  0.43750000000000000000 55.5067450000 48.8536410000 52.4567880000
210      13   3 -0.51029999999999997584 53.3339210000 46.7234140000 52.7640480000
211      13   3 -0.51029999999999997584 52.6291710000 49.7695020000 52.9407850000
212      13   3 -0.51029999999999997584 54.2849170000 48.4107190000 55.2255090000
213      13   4  0.10780000000000000693 52.4038350000 46.3973070000 53.2464210000
214      13   4  0.10780000000000000693 53.1633890000 46.7395250000 51.6816660000
215      13   4  0.10780000000000000693 54.1026980000 45.9701580000 52.9742530000
216      13   4  0.10780000000000000693 51.6621560000 49.5997460000 53.4309060000
217      13   4  0.10780000000000000693 52.9950280000 50.7551270000 53.2518270000
218      13   4  0.10780000000000000693 52.4556930000 49.7994410000 51.8580530000
219      13   4  0.10780000000000000693 55.0572230000 47.6643110000 55.4479480000
220      13   4  0.10780000000000000693 54.6588470000 49.3903680000 55.5468030000
221      13   4  0.10780000000000000693 53.4024460000 48.1721060000 55.8322830000
222      14   1  0.72319999999999995399 33.1861160000 45.9106310000 14.2009470000
223      14   2 -0.20000000000000001110 31.3774380000 45.1587510000 12.2262300000
224      14   2 -0.20000000000000001110 33.1616760000 43.8931360000 12.2865390000
225      14   2 -0.20000000000000001110 31.6019530000 43.6594340000 13.8038410000
226      14   3  0.43750000000000000000 32.2895640000 44.5940980000 13.0761650000
227      14   3 -0.51029999999999997584 34.0568760000 47.0895090000 13.0216810000
228      14   3 -0.51029999999999997584 34.3857870000 44.9408750000 15.2759560000
229      14   3 -0.51029999999999997584 31.8298670000 46.7488800000 15.1975910000
230      14   4  0.10780000000000000693 34.5907420000 47.8711600000 13.5767470000
231      14   4  0.10780000000000000693 34.7877700000 46.5597660000 12.4003460000
232      14   4  0.10780000000000000693 33.3396380000 47.5824170000 12.3544420000
233      14   4  0.10780000000000000693 34.9378890000 45.6117660000 15.9462120000
234      14   4  0.10780000000000000693 33.8568490000 44.2073670000 15.8958300000
235      14   4  0.10780000000000000693 35.1185890000 44.4007030000 14.6639800000
236      14   4  0.10780000000000000693 31.1026460000 47.2416740000 14.5408080000
237      14   4  0.10780000000000000693 31.2889140000 46.0232010000 15.8168870000
238      14   4  0.10780000000000000693 32.2514360000 47.5116650000 15.8641530000
239      15   1  0.72319999999999995399 43.9243710000 48.0213450000 40.3226830000
240      15   2 -0.20000000000000001110 44.8135230000 50.1859040000 38.8192740000
241      15   2 -0.20000000000000001110 44.1001520000 48.5203330000 37.5921230000
242      15   2 -0.20000000000000001110 42.6661770000 49.8196460000 38.6144040000
243      15   3  0.43750000000000000000 43.8742810000 49.1919380000 38.7640290000
244      15   3 -0.51029999999999997584 45.6485910000 47.2696440000 40.3483410000
245      15   3 -0.51029999999999997584 42.5768700000 46.7388150000 40.0494840000
246      15   3 -0.51029999999999997584 43.5894420000 49.1237990000 41.8085450000
247      15   4  0.10780000000000000693 45.7647700000 46.5918320000 41.2034220000
248      15   4  0.10780000000000000693 45.8437800000 46.6955840000 39.4355170000
249      15   4  0.10780000000000000693 46.4175320000 48.0472510000 40.4299080000
250      15   4  0.10780000000000000693 42.5355840000 46.0325500000 40.8883160000
251      15   4  0.10780000000000000693 41.5922460000 47.2128120000 39.9606220000
252      15   4  0.10780000000000000693 42.7583860000 46.1621350000 39.1341740000
253      15   4  0.10780000000000000693 44.3495170000 49.9094910000 41.8981760000
254      15   4  0.10780000000000000693 42.6093120000 49.6090950000 41.7273090000
255      15   4  0.10780000000000000693 43.5993500000 48.5393200000 42.7370670000
256      16   1  0.72319999999999995399 45.2024540000  2.5381310000  3.9072760000
257      16   2 -0.20000000000000001110 46.2211550000  1.6487680000  1.4767550000
258      16   2 -0.20000000000000001110 45.1991630000  0.0788780000  2.6080810000
259      16   2 -0.20000000000000001110 44.0351760000  1.6077420000  1.5605770000
260      16   3  0.43750000000000000000 45.1632450000  1.4157470000  2.3132500000
261      16   3 -0.51029999999999997584 46.8140710000  2.1289880000  4.7870120000
262      16   3 -0.51029999999999997584 43.6857110000  2.0627600000  4.9116630000
263      16   3 -0.51029999999999997584 45.1404770000  4.3135910000  3.2914280000
264      16   4  0.10780000000000000693 46.9187560000  2.7233380000  5.7034600000
265      16   4  0.10780000000000000693 46.8546730000  1.0701970000  5.0666620000
266      16   4  0.10780000000000000693 47.6788130000  2.3434420000  4.1476130000
267      16   4  0.10780000000000000693 43.6297890000  2.6524670000  5.8353910000
268      16   4  0.10780000000000000693 42.7644960000  2.2394080000  4.3440250000
269      16   4  0.10780000000000000693 43.7122530000  1.0025040000  5.1917550000
270      16   4  0.10780000000000000693 45.9981810000  4.5391650000  2.6460430000
271      16   4  0.10780000000000000693 44.2257930000  4.5002690000  2.7158680000
272      16   4  0.10780000000000000693 45.1583240000  5.0181690000  4.1323320000
273      17   1  0.72319999999999995399 26.3601070000 39.4707380000 12.8673780000
274      17   2 -0.20000000000000001110 26.9266740000 39.4948180000 10.1444080000
275      17   2 -0.20000000000000001110 24.8146680000 39.8580550000 10.5875880000
276      17   2 -0.20000000000000001110 26.2888950000 41.4434400000 10.9081620000
277      17   3  0.43750000000000000000 26.0849110000 40.0955940000 11.0409000000
278      17   3 -0.51029999999999997584 26.0386250000 37.6176060000 12.8327910000
279      17   3 -0.51029999999999997584 25.1173690000 40.4038780000 13.9257410000
280      17   3 -0.51029999999999997584 28.1419460000 39.8918920000 13.2952220000
281      17   4  0.10780000000000000693 26.1742800000 37.1805740000 13.8301320000
282      17   4  0.10780000000000000693 25.0154690000 37.3993590000 12.5065820000
283      17   4  0.10780000000000000693 26.7278240000 37.1096810000 12.1475060000
284      17   4  0.10780000000000000693 25.2042720000 40.1094500000 14.9792660000
285      17   4  0.10780000000000000693 25.2803700000 41.4863660000 13.8648910000
286      17   4  0.10780000000000000693 24.0891210000 40.1981290000 13.6037590000
287      17   4  0.10780000000000000693 28.8415200000 39.3935260000 12.6131020000
288      17   4  0.10780000000000000693 28.3187460000 40.9723460000 13.2309870000
289      17   4  0.10780000000000000693 28.3831440000 39.5718230000 14.3166160000
290      18   1  0.72319999999999995399 24.0940520000 16.5218160000 13.3313150000
291      18   2 -0.20000000000000001110 25.1520660000 14.9153030000 11.3223680000
292      18   2 -0.20000000000000001110 24.8418970000 13.8458260000 13.2062300000
293      18   2 -0.20000000000000001110 23.1335570000 14.3233640000 11.9243990000
294      18   3  0.43750000000000000000 24.3163600000 14.8219460000 12.4022180000
295      18   3 -0.51029999999999997584 25.8146310000 17.0292740000 13.8976540000
296      18   3 -0.51029999999999997584 22.9289570000 16.1780260000 14.7664610000
297      18   3 -0.51029999999999997584 23.3640010000 17.7093630000 12.0695200000
298      18   4  0.10780000000000000693 25.7812780000 17.9861740000 14.4336740000
299      18   4  0.10780000000000000693 26.2460580000 16.2810970000 14.5721850000
300      18   4  0.10780000000000000693 26.4930720000 17.1464930000 13.0440870000
301      18   4  0.10780000000000000693 22.7479650000 17.0905900000 15.3483740000
302      18   4  0.10780000000000000693 21.9600390000 15.8095560000 14.4094150000
303      18   4  0.10780000000000000693 23.3478140000 15.4249860000 15.4452760000
304      18   4  0.10780000000000000693 24.0314870000 17.8312090000 11.2077330000
305      18   4  0.10780000000000000693 22.3970070000 17.3474010000 11.6998270000
306      18   4  0.10780000000000000693 23.2047570000 18.6998860000 12.5137860000
307      19   1  0.72319999999999995399 32.2144690000 29.0036450000 24.7079600000
308      19   2 -0.20000000000000001110 33.1175380000 31.6281980000 24.8877810000
309      19   2 -0.20000000000000001110 31.8155570000 31.2819550000 23.1632860000
310      19   2 -0.20000000000000001110 30.9559370000 31.4404660000 25.1696470000
311      19   3  0.43750000000000000000 32.0172170000 30.9290440000 24.4710410000
312      19   3 -0.51029999999999997584 33.7116980000 28.5082120000 23.6825340000
313      19   3 -0.51029999999999997584 30.6168250000 28.2388260000 24.0771940000
314      19   3 -0.51029999999999997584 32.4731470000 28.7330170000 26.5505710000
315      19   4  0.10780000000000000693 33.8972100000 27.4295420000 23.7609330000
316      19   4  0.10780000000000000693 33.5629430000 28.7475220000 22.6235280000
317      19   4  0.10780000000000000693 34.6142700000 29.0293810000 24.0236270000
318      19   4  0.10780000000000000693 30.6432150000 27.1461160000 24.1743640000
319      19   4  0.10780000000000000693 29.7525470000 28.6056750000 24.6433210000
320      19   4  0.10780000000000000693 30.4539630000 28.4775660000 23.0189980000
321      19   4  0.10780000000000000693 33.3708380000 29.2539770000 26.9052700000
322      19   4  0.10780000000000000693 31.6172030000 29.1026930000 27.1280360000
323      19   4  0.10780000000000000693 32.5938090000 27.6656190000 26.7741100000
324      20   1  0.72319999999999995399 47.3485740000 11.4220870000 30.4577410000
325      20   2 -0.20000000000000001110 48.3398820000 12.3901590000 32.8694400000
326      20   2 -0.20000000000000001110 46.2541190000 12.9466360000 32.5104850000
327      20   2 -0.20000000000000001110 46.7525450000 10.9061380000 33.1248930000
328      20   3  0.43750000000000000000 47.1656810000 11.9409780000 32.3284360000
329      20   3 -0.51029999999999997584 47.9215220000 12.9655320000 29.5477110000
330      20   3 -0.51029999999999997584 45.6435720000 10.8477150000 29.9115280000
331      20   3 -0.51029999999999997584 48.6260440000 10.0427990000 30.4260410000
332      20   4  0.10780000000000000693 48.0524330000 12.7601990000 28.4777630000
333      20   4  0.10780000000000000693 47.1922820000 13.7774290000 29.6473260000
334      20   4  0.10780000000000000693 48.8811110000 13.3225720000 29.9405320000
335      20   4  0.10780000000000000693 45.6564570000 10.5346590000 28.8598700000
336      20   4  0.10780000000000000693 45.3024960000  9.9957990000 30.5114950000
337      20   4  0.10780000000000000693 44.9034060000 11.6508950000 30.0132900000
338      20   4  0.10780000000000000693 49.5897010000 10.3862410000 30.8216080000
339      20   4  0.10780000000000000693 48.2985310000  9.1872240000 31.0289440000
340      20   4  0.10780000000000000693 48.7908520000  9.6883120000 29.4008360000