Generated by pymatgen.io.lammps.data.LammpsData

15947  atoms
15193  bonds
27163  angles
27297  dihedrals

   17  atom types
   18  bond types
   31  angle types
   30  dihedral types

-0.2500000000 60.2500000000  xlo xhi
-0.2500000000 60.2500000000  ylo yhi
-0.2500000000 60.2500000000  zlo zhi

Masses

1   18.998403
2   15.999400
3   12.010700
4   12.010700
5    1.007940
6   14.010000
7   32.060000
8   16.000000
9   12.010000
10  19.000000
11  16.000000
12  12.010000
13  12.010000
14   1.008000
15  32.060000
16  32.060000
17   6.941000

Pair Coeffs

1     0.0530  2.950000
2     0.1400  2.900000
3     0.0660  3.500000
4     0.0660  3.500000
5     0.0300  2.500000
6       0.17  3.249999
7       0.25  3.549340
8       0.21  2.959566
9      0.066  3.499450
10     0.053  2.948875
11      0.14  2.900000
12     0.066  3.500000
13     0.066  3.500000
14      0.03  2.500000
15  0.344001  3.590322
16  0.344001  3.590322
17  0.165057  1.506000

Bond Coeffs

1   455.00  1.355
2   367.00  1.332
3   470.00  1.351
4   320.00  1.410
5   268.00  1.529
6   268.00  1.529
7   340.00  1.090
8   441.80  1.323
9   235.40  1.818
10  637.10  1.442
11  372.00  1.570
12  320.00  1.410
13  320.00  1.380
14  268.00  1.529
15  340.00  1.090
16  340.00  1.090
17  157.87  2.133
18  154.36  2.117


Angle Coeffs

1    90.00  114.194
2   110.00  107.787
3   110.00  110.361
4    50.00  109.500
5    50.00  109.500
6    50.00  109.500
7    50.00  109.500
8    35.00  109.500
9    37.50  110.700
10   33.00  107.800
11   77.00  109.100
12   50.00  109.500
13   40.00  107.000
14   37.50  110.700
15   93.30  107.100
16   82.90  111.800
17  104.00  102.600
18  115.80  118.500
19   94.30  113.600
20   97.50  100.200
21   80.20  125.600
22   60.00  109.500
23   50.00  109.500
24   35.00  109.500
25   37.50  110.700
26   33.00  107.800
27   92.60  111.550
28   35.00  109.500
29   33.00  109.500
30   73.56  112.740
31   73.56  112.740


Dihedral Coeffs

1 3 1.726500000 1 0.000000000 -1.387000000 2 180.000000000 0.335500000 3 0.000000000
2 3 0.062500000 1 0.000000000 -0.011000000 2 180.000000000 0.280500000 3 0.000000000
3 3 0.062500000 1 0.000000000 -0.011000000 2 180.000000000 0.280500000 3 0.000000000
4 3 0.062500000 1 0.000000000 -0.011000000 2 180.000000000 0.280500000 3 0.000000000
5 1 0.370500000 3 0.000000000
6 1 0.370500000 3 0.000000000
7 3 0.301000000 1 0.000000000 -1.359500000 2 180.000000000 0.367000000 3 0.000000000
8 3 0.301000000 1 0.000000000 -1.359500000 2 180.000000000 0.367000000 3 0.000000000
9 1 0.221000000 3 0.000000000
10 1 0.221000000 3 0.000000000
11 2 0.518500000 1 0.000000000 -0.728500000 2 180.000000000
12 2 0.518500000 1 0.000000000 -0.728500000 2 180.000000000
13 1 0.234000000 3 0.000000000
14 1 0.234000000 3 0.000000000
15 1 0.150000000 3 0.000000000
16 1 0.173400000 3 0.000000000
17 1 0.158000000 3 0.000000000
18 1 -0.001800000 3 0.000000000
19 3 3.916460000 1 0.000000000 -1.245000000 2 180.000000000 -0.381800000 3 0.000000000
20 3 0.062500000 1 0.000000000 -0.011000000 2 180.000000000 0.280500000 3 0.000000000
21 3 0.062500000 1 0.000000000 -0.011000000 2 180.000000000 0.280500000 3 0.000000000
22 1 0.370500000 3 0.000000000
23 1 0.370500000 3 0.000000000
24 3 -0.533500000 1 0.000000000 -0.783500000 2 180.000000000 0.337500000 3 0.000000000
25 1 0.370500000 3 0.000000000
26 3 1.119000000 1 0.000000000 -1.163500000 2 180.000000000 -0.341500000 3 0.000000000
27 1 0.234000000 3 0.000000000
28 1 0.150000000 3 0.000000000
29 4 5.431700000 1 0.000000000 -3.590000000 2 180.000000000 1.055600000 3 0.000000000 0.058320000 4 180.000000000
30 4 5.431700000 1 0.000000000 -3.590000000 2 180.000000000 1.055600000 3 0.000000000 0.058320000 4 180.000000000


Atoms

1         1   1 -0.23260000000000000120 33.7225290000 40.8373310000 11.7140860000
2         1   1 -0.23260000000000000120 32.8914930000 39.3399530000 13.0768710000
3         1   1 -0.11999999999999999556 36.2658420000 39.7420780000 12.0589550000
4         1   1 -0.11999999999999999556 35.2667420000 40.3254030000 13.9412640000
5         1   2 -0.36299999999999998934 33.8782330000 38.6503050000 11.1669070000
6         1   3  0.64670000000000005258 33.9032660000 39.5548300000 12.1623690000
7         1   4  0.12149999999999999689 32.6921090000 38.6348800000 10.3187960000
8         1   4  0.08999999999999999667 35.2455790000 39.4367100000 12.9096020000
9         1   4 -0.17999999999999999334 32.8767680000 37.5064040000  9.3234460000
10        1   5  0.02999999999999999889 31.8131800000 38.4792590000 10.9534090000
11        1   5  0.02999999999999999889 32.6098380000 39.6067570000  9.8240860000
12        1   5  0.14999999999999999445 35.3912840000 38.4262330000 13.2996250000
13        1   5  0.05999999999999999778 32.9718490000 36.5448380000  9.8383440000
14        1   5  0.05999999999999999778 32.0082050000 37.4604410000  8.6559360000
15        1   5  0.05999999999999999778 33.7740360000 37.6694490000  8.7176870000
16        2   1 -0.23260000000000000120 20.4633390000 26.6729280000 10.1971300000
17        2   1 -0.23260000000000000120 19.8228450000 28.0867660000 11.7401070000
18        2   1 -0.11999999999999999556 20.6591470000 24.6603660000 12.1202030000
19        2   1 -0.11999999999999999556 21.8348630000 26.4731820000 12.5816650000
20        2   2 -0.36299999999999998934 18.5468410000 26.2710580000 11.3250760000
21        2   3  0.64670000000000005258 19.8019740000 26.7500960000 11.3950760000
22        2   4  0.12149999999999999689 17.6691840000 26.8635910000 10.3225570000
23        2   4  0.08999999999999999667 20.5726190000 25.9723870000 12.4792300000
24        2   4 -0.17999999999999999334 16.3128440000 26.2048580000 10.4796960000
25        2   5  0.02999999999999999889 17.6208520000 27.9436040000 10.4977810000
26        2   5  0.02999999999999999889 18.1009650000 26.6793960000  9.3347870000
27        2   5  0.14999999999999999445 20.0733530000 26.0490060000 13.4483910000
28        2   5  0.05999999999999999778 15.9044500000 26.3882010000 11.4788800000
29        2   5  0.05999999999999999778 15.6176900000 26.6153530000  9.7378470000
30        2   5  0.05999999999999999778 16.3890640000 25.1236320000 10.3255620000
31        3   1 -0.23260000000000000120 22.9810590000 42.7748600000  9.0885760000
32        3   1 -0.23260000000000000120 21.6359220000 41.4720770000 10.2214080000
33        3   1 -0.11999999999999999556 20.9007010000 44.5955790000  8.7090360000
34        3   1 -0.11999999999999999556 20.4439730000 42.5426190000  8.0320500000
35        3   2 -0.36299999999999998934 22.0582080000 43.5484830000 11.0007950000
36        3   3  0.64670000000000005258 21.8782580000 42.7932600000  9.9021630000
37        3   4  0.12149999999999999689 23.1988590000 43.2201410000 11.8478650000
38        3   4  0.08999999999999999667 20.6552180000 43.3221720000  9.1285090000
39        3   4 -0.17999999999999999334 23.1520810000 44.1623260000 13.0346170000
40        3   5  0.02999999999999999889 23.1132360000 42.1724470000 12.1552310000
41        3   5  0.02999999999999999889 24.1123070000 43.3480970000 11.2602500000
42        3   5  0.14999999999999999445 19.7599160000 43.3151020000  9.7552420000
43        3   5  0.05999999999999999778 22.2245250000 44.0293250000 13.6009370000
44        3   5  0.05999999999999999778 23.9993730000 43.9569740000 13.6994560000
45        3   5  0.05999999999999999778 23.2134590000 45.2038370000 12.7027970000
46        4   1 -0.23260000000000000120  7.3026940000  7.4522330000 17.8240990000
47        4   1 -0.23260000000000000120  8.8786780000  8.4709970000 18.9503060000
48        4   1 -0.11999999999999999556  6.8476360000  5.7556740000 19.9924080000
49        4   1 -0.11999999999999999556  8.9398520000  5.7791870000 19.2827340000
50        4   2 -0.36299999999999998934  6.7656050000  8.5161100000 19.7441070000
51        4   3  0.64670000000000005258  7.6898940000  7.7842140000 19.0962230000
52        4   4  0.12149999999999999689  6.3328660000  9.7515520000 19.1015800000
53        4   4  0.08999999999999999667  7.9797550000  6.5105670000 19.9134850000
54        4   4 -0.17999999999999999334  5.3460800000 10.4150670000 20.0419420000
55        4   5  0.02999999999999999889  7.2133960000 10.3785790000 18.9255860000
56        4   5  0.02999999999999999889  5.8751300000  9.4982060000 18.1411920000
57        4   5  0.14999999999999999445  8.3187500000  6.7589750000 20.9223390000
58        4   5  0.05999999999999999778  5.8188170000 10.6471350000 21.0018560000
59        4   5  0.05999999999999999778  4.9855830000 11.3493450000 19.5955660000
60        4   5  0.05999999999999999778  4.4870840000  9.7610770000 20.2237080000
61        5   1 -0.23260000000000000120 32.3052490000 54.0331500000 47.2957100000
62        5   1 -0.23260000000000000120 31.8112520000 52.5119700000 45.8017480000
63        5   1 -0.11999999999999999556 32.4878880000 52.0532640000 49.2536810000
64        5   1 -0.11999999999999999556 30.5618810000 52.0836220000 48.1714910000
65        5   2 -0.36299999999999998934 33.8116240000 52.4104500000 46.8435910000
66        5   3  0.64670000000000005258 32.5082130000 52.7159530000 46.9759730000
67        5   4  0.12149999999999999689 34.5801180000 53.1975910000 45.8863830000
68        5   4  0.08999999999999999667 31.8898150000 51.8054300000 48.0542340000
69        5   4 -0.17999999999999999334 35.9862180000 52.6309420000 45.8780270000
70        5   5  0.02999999999999999889 34.1013080000 53.1151710000 44.9048450000
71        5   5  0.02999999999999999889 34.5626880000 54.2429170000 46.2073830000
72        5   5  0.14999999999999999445 32.0171670000 50.7504700000 47.7987890000
73        5   5  0.05999999999999999778 35.9808520000 51.5807020000 45.5686120000
74        5   5  0.05999999999999999778 36.6062510000 53.1988810000 45.1744010000
75        5   5  0.05999999999999999778 36.4358740000 52.7003000000 46.8738260000
76        6   1 -0.23260000000000000120 43.7312170000 30.4079120000 14.9297970000
77        6   1 -0.23260000000000000120 42.1162940000 29.0300230000 15.4621410000
78        6   1 -0.11999999999999999556 45.6131220000 28.4370940000 15.5308540000
79        6   1 -0.11999999999999999556 44.2118650000 28.8858490000 17.1790820000
80        6   2 -0.36299999999999998934 43.4881630000 28.4955820000 13.7505390000
81        6   3  0.64670000000000005258 43.4015370000 29.0779410000 14.9601220000
82        6   4  0.12149999999999999689 42.7116370000 29.0956590000 12.6719580000
83        6   4  0.08999999999999999667 44.3187220000 28.3248090000 15.9428120000
84        6   4 -0.17999999999999999334 42.9282240000 28.2361300000 11.4420880000
85        6   5  0.02999999999999999889 41.6588960000 29.1189540000 12.9730600000
86        6   5  0.02999999999999999889 43.0646290000 30.1198560000 12.5220650000
87        6   5  0.14999999999999999445 44.0491290000 27.2672920000 16.0010130000
88        6   5  0.05999999999999999778 42.5824410000 27.2121140000 11.6170010000
89        6   5  0.05999999999999999778 42.3666730000 28.6548010000 10.5986080000
90        6   5  0.05999999999999999778 43.9893780000 28.2064500000 11.1743400000
91        7   1 -0.23260000000000000120 36.4668180000 32.9627140000 38.6495710000
92        7   1 -0.23260000000000000120 37.3237730000 31.8883930000 36.9462190000
93        7   1 -0.11999999999999999556 36.3754170000 35.3017140000 37.1304660000
94        7   1 -0.11999999999999999556 38.3761580000 34.3711970000 37.2433050000
95        7   2 -0.36299999999999998934 35.2641900000 32.7908830000 36.7440820000
96        7   3  0.64670000000000005258 36.4896680000 32.9369150000 37.2794450000
97        7   4  0.12149999999999999689 34.4906510000 31.6313610000 37.1725300000
98        7   4  0.08999999999999999667 37.1210660000 34.2320460000 36.7334710000
99        7   4 -0.17999999999999999334 33.1893040000 31.6581840000 36.3953190000
100       7   5  0.02999999999999999889 35.0729960000 30.7280480000 36.9618890000
101       7   5  0.02999999999999999889 34.3243340000 31.7076470000 38.2507550000
102       7   5  0.14999999999999999445 37.1739560000 34.2143410000 35.6420050000
103       7   5  0.05999999999999999778 33.3776010000 31.5957820000 35.3185560000
104       7   5  0.05999999999999999778 32.5679690000 30.8045950000 36.6909800000
105       7   5  0.05999999999999999778 32.6361050000 32.5802510000 36.6011830000
106       8   1 -0.23260000000000000120 33.7370710000 50.0807620000 34.4871090000
107       8   1 -0.23260000000000000120 35.5560810000 51.2392100000 34.8601340000
108       8   1 -0.11999999999999999556 35.0983080000 48.5505460000 32.5917380000
109       8   1 -0.11999999999999999556 35.1737540000 50.7277460000 32.2234080000
110       8   2 -0.36299999999999998934 35.5674980000 49.0216110000 35.2836430000
111       8   3  0.64670000000000005258 35.1047310000 49.9924160000 34.4754830000
112       8   4  0.12149999999999999689 35.1628570000 49.0793720000 36.6834100000
113       8   4  0.08999999999999999667 35.6087460000 49.7310220000 33.0430870000
114       8   4 -0.17999999999999999334 35.8507950000 47.9272580000 37.3888560000
115       8   5  0.02999999999999999889 35.4667320000 50.0484750000 37.0932510000
116       8   5  0.02999999999999999889 34.0734580000 48.9955620000 36.7306940000
117       8   5  0.14999999999999999445 36.7003210000 49.6875040000 33.0117900000
118       8   5  0.05999999999999999778 36.9392990000 48.0213970000 37.3176880000
119       8   5  0.05999999999999999778 35.5692120000 47.9254410000 38.4484760000
120       8   5  0.05999999999999999778 35.5524010000 46.9710630000 36.9469640000
121       9   1 -0.23260000000000000120 37.4334650000  6.8858920000 46.1195580000
122       9   1 -0.23260000000000000120 37.2320740000  7.0221520000 43.9445130000
123       9   1 -0.11999999999999999556 40.0134730000  7.9352260000 45.9480610000
124       9   1 -0.11999999999999999556 39.6810220000  6.1379710000 44.7067280000
125       9   2 -0.36299999999999998934 37.5512260000  8.9153180000 45.1324940000
126       9   3  0.64670000000000005258 37.8501430000  7.6075810000 45.0314500000
127       9   4  0.12149999999999999689 36.1506230000  9.2572410000 45.3511760000
128       9   4  0.08999999999999999667 39.3721540000  7.4571290000 44.8444670000
129       9   4 -0.17999999999999999334 36.0644640000 10.7706650000 45.3712780000
130       9   5  0.02999999999999999889 35.5566110000  8.8256400000 44.5385640000
131       9   5  0.02999999999999999889 35.8329050000  8.8171900000 46.3006300000
132       9   5  0.14999999999999999445 39.7161780000  8.0031530000 43.9624720000
133       9   5  0.05999999999999999778 36.4003500000 11.1923930000 44.4183380000
134       9   5  0.05999999999999999778 35.0254350000 11.0765570000 45.5413770000
135       9   5  0.05999999999999999778 36.6850060000 11.1816300000 46.1741800000
136      10   1 -0.23260000000000000120 18.0769440000 28.9500140000 23.9133640000
137      10   1 -0.23260000000000000120 19.6937290000 30.4077910000 24.1388370000
138      10   1 -0.11999999999999999556 19.2402390000 28.0225120000 21.5525500000
139      10   1 -0.11999999999999999556 18.8384480000 30.1949990000 21.5730420000
140      10   2 -0.36299999999999998934 20.1982370000 28.2071960000 24.1480320000
141      10   3  0.64670000000000005258 19.4013250000 29.1585650000 23.6288350000
142      10   4  0.12149999999999999689 20.1084270000 27.9835340000 25.5862010000
143      10   4  0.08999999999999999667 19.6159520000 29.2110370000 22.1039430000
144      10   4 -0.17999999999999999334 21.1312660000 26.9191220000 25.9313200000
145      10   5  0.02999999999999999889 20.3151350000 28.9292030000 26.0985000000
146      10   5  0.02999999999999999889 19.0897070000 27.6630620000 25.8219120000
147      10   5  0.14999999999999999445 20.6632600000 29.4066300000 21.8604300000
148      10   5  0.05999999999999999778 22.1419990000 27.2526850000 25.6745650000
149      10   5  0.05999999999999999778 21.0952040000 26.7110540000 27.0071880000
150      10   5  0.05999999999999999778 20.9204180000 25.9915260000 25.3893540000
151      11   1 -0.23260000000000000120 20.0781860000 17.5951070000 44.4483660000
152      11   1 -0.23260000000000000120 21.0858850000 15.9046070000 43.4909230000
153      11   1 -0.11999999999999999556 22.5107480000 18.9520680000 44.6164610000
154      11   1 -0.11999999999999999556 22.5258170000 16.9454880000 45.5411060000
155      11   2 -0.36299999999999998934 21.1074200000 17.9141070000 42.4620010000
156      11   3  0.64670000000000005258 21.1419580000 17.2754230000 43.6454820000
157      11   4  0.12149999999999999689 19.9056800000 17.7422770000 41.6540910000
158      11   4  0.08999999999999999667 22.4660460000 17.6148040000 44.3566260000
159      11   4 -0.17999999999999999334 20.1311260000 18.5021820000 40.3618080000
160      11   5  0.02999999999999999889 19.7561100000 16.6718760000 41.4770610000
161      11   5  0.02999999999999999889 19.0538060000 18.1354130000 42.2160570000
162      11   5  0.14999999999999999445 23.3255870000 17.3380110000 43.7410090000
163      11   5  0.05999999999999999778 20.9961140000 18.1036500000 39.8216810000
164      11   5  0.05999999999999999778 19.2460770000 18.4076020000 39.7216310000
165      11   5  0.05999999999999999778 20.3035220000 19.5642610000 40.5640130000
166      12   1 -0.23260000000000000120 50.3038660000 46.2721670000 50.7984090000
167      12   1 -0.23260000000000000120 50.7985110000 48.3857040000 51.0781110000
168      12   1 -0.11999999999999999556 52.7387810000 45.5477920000 51.9531490000
169      12   1 -0.11999999999999999556 52.9237490000 46.9250830000 50.2354720000
170      12   2 -0.36299999999999998934 50.6124110000 47.0579540000 52.8946130000
171      12   3  0.64670000000000005258 51.0030620000 47.1278270000 51.6092150000
172      12   4  0.12149999999999999689 49.1978300000 47.2833310000 53.1677170000
173      12   4  0.08999999999999999667 52.5113320000 46.8231070000 51.5293280000
174      12   4 -0.17999999999999999334 49.0223660000 47.2104470000 54.6717720000
175      12   5  0.02999999999999999889 48.9197300000 48.2658540000 52.7717640000
176      12   5  0.02999999999999999889 48.6201520000 46.5117260000 52.6510310000
177      12   5  0.14999999999999999445 53.0862730000 47.5167670000 52.1479450000
178      12   5  0.05999999999999999778 49.6194050000 47.9804920000 55.1711160000
179      12   5  0.05999999999999999778 47.9674380000 47.3673850000 54.9259000000
180      12   5  0.05999999999999999778 49.3298550000 46.2296830000 55.0488250000
181      13   1 -0.23260000000000000120 19.0190180000  7.9687120000 45.9025430000
182      13   1 -0.23260000000000000120 19.6425770000  5.9109340000 45.4942910000
183      13   1 -0.11999999999999999556 20.9293480000  8.1473400000 47.9287920000
184      13   1 -0.11999999999999999556 19.5283260000  6.4533050000 48.1500150000
185      13   2 -0.36299999999999998934 21.1387790000  7.5797380000 45.2228060000
186      13   3  0.64670000000000005258 20.1017370000  7.1298460000 45.9521060000
187      13   4  0.12149999999999999689 20.8848030000  7.8538490000 43.8132740000
188      13   4  0.08999999999999999667 20.5623440000  6.9413960000 47.4103380000
189      13   4 -0.17999999999999999334 22.2036910000  8.2869810000 43.2040040000
190      13   5  0.02999999999999999889 20.4996380000  6.9414110000 43.3457550000
191      13   5  0.02999999999999999889 20.1263370000  8.6388970000 43.7463460000
192      13   5  0.14999999999999999445 21.4073380000  6.2508650000 47.4700240000
193      13   5  0.05999999999999999778 22.9531880000  7.4939380000 43.2940340000
194      13   5  0.05999999999999999778 22.0599770000  8.5122430000 42.1406660000
195      13   5  0.05999999999999999778 22.5824580000  9.1849850000 43.7027440000
196      14   1 -0.23260000000000000120 22.0196770000 10.4254470000 39.2216780000
197      14   1 -0.23260000000000000120 22.7494400000 12.1851170000 38.1442030000
198      14   1 -0.11999999999999999556 19.4757030000 10.8188320000 38.1444590000
199      14   1 -0.11999999999999999556 20.2876120000 12.5718180000 39.2165620000
200      14   2 -0.36299999999999998934 21.9542930000 10.4331660000 36.9628300000
201      14   3  0.64670000000000005258 21.8218960000 11.1642120000 38.0843380000
202      14   4  0.12149999999999999689 23.2131480000  9.7188840000 36.7853310000
203      14   4  0.08999999999999999667 20.4191820000 11.8015670000 38.1012360000
204      14   4 -0.17999999999999999334 23.1408080000  9.0264790000 35.4386230000
205      14   5  0.02999999999999999889 24.0329740000 10.4438370000 36.8277180000
206      14   5  0.02999999999999999889 23.3227600000  9.0049700000 37.6065270000
207      14   5  0.14999999999999999445 20.2566930000 12.4188690000 37.2141370000
208      14   5  0.05999999999999999778 23.0164070000  9.7562000000 34.6319000000
209      14   5  0.05999999999999999778 24.0675100000  8.4673180000 35.2635610000
210      14   5  0.05999999999999999778 22.2999480000  8.3259490000 35.4098420000
211      15   1 -0.23260000000000000120  7.4759740000 18.4775340000 54.4033060000
212      15   1 -0.23260000000000000120  6.1042270000 19.1425560000 52.8329550000
213      15   1 -0.11999999999999999556  8.8415840000 16.9044930000 52.5465330000
214      15   1 -0.11999999999999999556  6.6733730000 16.4955380000 52.6613230000
215      15   2 -0.36299999999999998934  8.3017310000 19.6226620000 52.6387840000
216      15   3  0.64670000000000005258  7.3986030000 18.7171420000 53.0560740000
217      15   4  0.12149999999999999689  8.2851460000 20.9234110000 53.2977210000
218      15   4  0.08999999999999999667  7.6055180000 17.4080530000 52.2702070000
219      15   4 -0.17999999999999999334  9.3416620000 21.7739410000 52.6204820000
220      15   5  0.02999999999999999889  7.2840860000 21.3545110000 53.1904880000
221      15   5  0.02999999999999999889  8.4996060000 20.7742200000 54.3597000000
222      15   5  0.14999999999999999445  7.5170980000 17.5768980000 51.1940650000
223      15   5  0.05999999999999999778  9.1171950000 21.8992030000 51.5562020000
224      15   5  0.05999999999999999778  9.3713290000 22.7643660000 53.0898040000
225      15   5  0.05999999999999999778 10.3294340000 21.3119710000 52.7179940000
226      16   1 -0.23260000000000000120 57.4126860000 20.1500470000 40.8220260000
227      16   1 -0.23260000000000000120 57.5446680000 22.2996250000 40.4323600000
228      16   1 -0.11999999999999999556 60.0004450000 19.8104810000 39.8345270000
229      16   1 -0.11999999999999999556 58.6191680000 20.8143890000 38.4324570000
230      16   2 -0.36299999999999998934 58.9874330000 21.3643290000 41.8955350000
231      16   3  0.64670000000000005258 58.3022620000 21.1902590000 40.7509930000
232      16   4  0.12149999999999999689 58.2046590000 21.5640790000 43.1095310000
233      16   4  0.08999999999999999667 59.3020840000 20.9576410000 39.6019240000
234      16   4 -0.17999999999999999334 59.1914780000 21.7916580000 44.2376600000
235      16   5  0.02999999999999999889 57.5481180000 22.4280730000 42.9614180000
236      16   5  0.02999999999999999889 57.5928540000 20.6728680000 43.2753270000
237      16   5  0.14999999999999999445 60.0006090000 21.7934240000 39.5128130000
238      16   5  0.05999999999999999778 59.8038560000 22.6788370000 44.0461460000
239      16   5  0.05999999999999999778 58.6463720000 21.9400810000 45.1772950000
240      16   5  0.05999999999999999778 59.8534860000 20.9270970000 44.3512220000
241      17   1 -0.23260000000000000120 34.8899590000 17.8608690000 12.2684380000
242      17   1 -0.23260000000000000120 33.0870790000 18.9380800000 12.8842160000
243      17   1 -0.11999999999999999556 34.5306400000 16.0566910000 14.3667200000
244      17   1 -0.11999999999999999556 34.6109780000 18.1735290000 14.9944970000
245      17   2 -0.36299999999999998934 32.9046900000 16.7816670000 12.2409050000
246      17   3  0.64670000000000005258 33.6722810000 17.6876460000 12.8731570000
247      17   4  0.12149999999999999689 32.6409180000 17.0128630000 10.8254930000
248      17   4  0.08999999999999999667 33.8632890000 17.2447650000 14.3365400000
249      17   4 -0.17999999999999999334 31.7191620000 15.9021410000 10.3618770000
250      17   5  0.02999999999999999889 32.1785310000 17.9994840000 10.7148330000
251      17   5  0.02999999999999999889 33.5950490000 17.0018770000 10.2911090000
252      17   5  0.14999999999999999445 32.9010480000 17.1309550000 14.8420590000
253      17   5  0.05999999999999999778 30.7764230000 15.9208920000 10.9183490000
254      17   5  0.05999999999999999778 31.4977140000 16.0304350000  9.2957690000
255      17   5  0.05999999999999999778 32.1908660000 14.9245810000 10.5050180000
256      18   1 -0.23260000000000000120 23.7601150000  6.9551160000 51.6446610000
257      18   1 -0.23260000000000000120 22.9011720000  6.3630620000 49.7206980000
258      18   1 -0.11999999999999999556 26.2510200000  7.2887720000 50.4318030000
259      18   1 -0.11999999999999999556 25.3581380000  5.2897550000 50.1347330000
260      18   2 -0.36299999999999998934 23.7748450000  8.4337290000 49.9357970000
261      18   3  0.64670000000000005258 23.8874310000  7.1416040000 50.2928310000
262      18   4  0.12149999999999999689 22.5580530000  9.1271270000 50.3420460000
263      18   4  0.08999999999999999667 25.2488930000  6.6072820000 49.8080250000
264      18   4 -0.17999999999999999334 22.6424390000 10.5319980000 49.7785780000
265      18   5  0.02999999999999999889 21.6968680000  8.5793810000 49.9448030000
266      18   5  0.02999999999999999889 22.5102080000  9.1272380000 51.4346400000
267      18   5  0.14999999999999999445 25.3539100000  6.7215750000 48.7262120000
268      18   5  0.05999999999999999778 22.7044030000 10.5100110000 48.6856710000
269      18   5  0.05999999999999999778 21.7477430000 11.0967430000 50.0660960000
270      18   5  0.05999999999999999778 23.5234330000 11.0517620000 50.1688500000
271      19   1 -0.23260000000000000120 26.6599860000 21.2601680000 16.1926700000
272      19   1 -0.23260000000000000120 27.3329990000 20.9960900000 14.1269350000
273      19   1 -0.11999999999999999556 27.4717120000 23.9289570000 16.1176980000
274      19   1 -0.11999999999999999556 29.0597950000 22.4830820000 15.5990500000
275      19   2 -0.36299999999999998934 25.6909870000 22.4842120000 14.5588140000
276      19   3  0.64670000000000005258 26.8313570000 21.9313190000 15.0100370000
277      19   4  0.12149999999999999689 24.5529590000 21.5915160000 14.3733200000
278      19   4  0.08999999999999999667 27.8906570000 23.0380040000 15.1751080000
279      19   4 -0.17999999999999999334 23.4222530000 22.4300940000 13.8106730000
280      19   5  0.02999999999999999889 24.8477090000 20.7908430000 13.6866510000
281      19   5  0.02999999999999999889 24.2953730000 21.1559150000 15.3428310000
282      19   5  0.14999999999999999445 28.0607990000 23.5637120000 14.2321910000
283      19   5  0.05999999999999999778 23.7047120000 22.8689110000 12.8481630000
284      19   5  0.05999999999999999778 22.5377770000 21.7997780000 13.6607170000
285      19   5  0.05999999999999999778 23.1613650000 23.2387310000 14.5010790000
286      20   1 -0.23260000000000000120 12.1027570000 18.2553670000 58.4589210000
287      20   1 -0.23260000000000000120 10.4918950000 16.8333840000 58.8748930000
288      20   1 -0.11999999999999999556 13.8604200000 16.1351730000 58.0090820000
289      20   1 -0.11999999999999999556 12.8536790000 16.0771250000 59.9749560000
290      20   2 -0.36299999999999998934 11.4492700000 16.8316260000 56.8302260000
291      20   3  0.64670000000000005258 11.6549460000 16.9975840000 58.1492760000
292      20   4  0.12149999999999999689 10.5432080000 17.7712370000 56.1801470000
293      20   4  0.08999999999999999667 12.6647380000 15.9392440000 58.6333760000
294      20   4 -0.17999999999999999334 10.4330560000 17.3451600000 54.7294210000
295      20   5  0.02999999999999999889  9.5755830000 17.7312710000 56.6915900000
296      20   5  0.02999999999999999889 10.9604970000 18.7771880000 56.2800600000
297      20   5  0.14999999999999999445 12.3079430000 14.9284340000 58.4203700000
298      20   5  0.05999999999999999778 10.0276330000 16.3311160000 54.6512250000
299      20   5  0.05999999999999999778  9.7641080000 18.0305600000 54.1957340000
300      20   5  0.05999999999999999778 11.4146750000 17.3681050000 54.2451520000
301      21   1 -0.23260000000000000120 15.5165240000  8.1446590000 17.9259930000
302      21   1 -0.23260000000000000120 17.5824970000  8.1810370000 18.6473680000
303      21   1 -0.11999999999999999556 15.0406540000  5.8240670000 19.4009030000
304      21   1 -0.11999999999999999556 16.7500830000  5.6791990000 18.0086300000
305      21   2 -0.36299999999999998934 15.9002230000  8.3536090000 20.1431640000
306      21   3  0.64670000000000005258 16.3036700000  7.7897110000 18.9903470000
307      21   4  0.12149999999999999689 15.7956980000  9.8079130000 20.1654210000
308      21   4  0.08999999999999999667 16.3099830000  6.2582710000 19.1599500000
309      21   4 -0.17999999999999999334 15.3849370000 10.1986960000 21.5714240000
310      21   5  0.02999999999999999889 16.7685380000 10.2304240000 19.8924090000
311      21   5  0.02999999999999999889 15.0518810000 10.1111040000 19.4232200000
312      21   5  0.14999999999999999445 16.9575400000  5.9565860000 19.9870320000
313      21   5  0.05999999999999999778 16.1344330000  9.8737840000 22.3004350000
314      21   5  0.05999999999999999778 15.2859590000 11.2887690000 21.6349000000
315      21   5  0.05999999999999999778 14.4231630000  9.7453040000 21.8322750000
316      22   1 -0.23260000000000000120 54.0445220000 48.9053600000  3.3463560000
317      22   1 -0.23260000000000000120 54.5729790000 49.4136670000  1.2842450000
318      22   1 -0.11999999999999999556 55.7998150000 50.8632200000  4.2805360000
319      22   1 -0.11999999999999999556 56.7291460000 49.3816050000  2.9304550000
320      22   2 -0.36299999999999998934 53.6097150000 50.9879930000  2.5845730000