Generated by pymatgen.io.lammps.data.LammpsData

15350  atoms
14695  bonds
26464  angles
27585  dihedrals

   17  atom types
   18  bond types
   32  angle types
   31  dihedral types

-0.2500000000 60.2500000000  xlo xhi
-0.2500000000 60.2500000000  ylo yhi
-0.2500000000 60.2500000000  zlo zhi

Masses

1   18.998403
2   15.999400
3   12.010700
4   12.010700
5    1.007940
6   14.010000
7   32.060000
8   16.000000
9   12.010000
10  19.000000
11  16.000000
12  12.010000
13  12.010000
14   1.008000
15  32.060000
16  32.060000
17   6.941000

Pair Coeffs

1     0.0530  2.950000
2     0.1400  2.900000
3     0.0620  3.250000
4     0.0660  3.500000
5     0.0300  2.500000
6       0.17  3.249999
7       0.25  3.549340
8       0.21  2.959566
9      0.066  3.499450
10     0.053  2.948875
11      0.14  2.900000
12     0.066  3.500000
13     0.066  3.500000
14      0.03  2.500000
15  0.344001  3.590322
16  0.344001  3.590322
17  0.165057  1.506000

Bond Coeffs

1   367.00  1.332
2   455.00  1.355
3   320.00  1.410
4   470.00  1.351
5   268.00  1.529
6   340.00  1.090
7   268.00  1.529
8   441.80  1.323
9   235.40  1.818
10  637.10  1.442
11  372.00  1.570
12  320.00  1.410
13  320.00  1.380
14  268.00  1.529
15  340.00  1.090
16  340.00  1.090
17  157.87  2.133
18  154.36  2.117


Angle Coeffs

1    90.00  114.194
2    77.00  109.100
3    50.00  109.500
4    58.35  112.700
5    50.00  109.500
6    35.00  109.500
7    37.50  110.700
8    33.00  107.800
9   110.00  107.787
10  110.00  110.361
11   50.00  109.500
12   50.00  109.500
13   50.00  109.500
14   40.00  107.000
15   37.50  110.700
16   93.30  107.100
17   82.90  111.800
18  104.00  102.600
19  115.80  118.500
20   94.30  113.600
21   97.50  100.200
22   80.20  125.600
23   60.00  109.500
24   50.00  109.500
25   35.00  109.500
26   37.50  110.700
27   33.00  107.800
28   92.60  111.550
29   35.00  109.500
30   33.00  109.500
31   73.56  112.740
32   73.56  112.740


Dihedral Coeffs

1 3 0.062500000 1 0.000000000 -0.011000000 2 180.000000000 0.280500000 3 0.000000000
2 3 0.062500000 1 0.000000000 -0.011000000 2 180.000000000 0.280500000 3 0.000000000
3 1 0.370500000 3 0.000000000
4 1 0.370500000 3 0.000000000
5 3 1.726500000 1 0.000000000 -1.387000000 2 180.000000000 0.335500000 3 0.000000000
6 3 0.062500000 1 0.000000000 -0.011000000 2 180.000000000 0.280500000 3 0.000000000
7 2 0.518500000 1 0.000000000 -0.728500000 2 180.000000000
8 1 0.221000000 3 0.000000000
9 3 0.627500000 1 0.000000000 -0.309500000 2 180.000000000 0.273000000 3 0.000000000
10 1 0.150000000 3 0.000000000
11 3 0.301000000 1 0.000000000 -1.359500000 2 180.000000000 0.367000000 3 0.000000000
12 3 0.396500000 1 0.000000000 -0.183500000 2 180.000000000 0.414500000 3 0.000000000
13 3 0.301000000 1 0.000000000 -1.359500000 2 180.000000000 0.367000000 3 0.000000000
14 1 0.221000000 3 0.000000000
15 2 0.518500000 1 0.000000000 -0.728500000 2 180.000000000
16 1 0.234000000 3 0.000000000
17 1 0.173400000 3 0.000000000
18 1 0.158000000 3 0.000000000
19 1 -0.001800000 3 0.000000000
20 3 3.916460000 1 0.000000000 -1.245000000 2 180.000000000 -0.381800000 3 0.000000000
21 3 0.062500000 1 0.000000000 -0.011000000 2 180.000000000 0.280500000 3 0.000000000
22 3 0.062500000 1 0.000000000 -0.011000000 2 180.000000000 0.280500000 3 0.000000000
23 1 0.370500000 3 0.000000000
24 1 0.370500000 3 0.000000000
25 3 -0.533500000 1 0.000000000 -0.783500000 2 180.000000000 0.337500000 3 0.000000000
26 1 0.370500000 3 0.000000000
27 3 1.119000000 1 0.000000000 -1.163500000 2 180.000000000 -0.341500000 3 0.000000000
28 1 0.234000000 3 0.000000000
29 1 0.150000000 3 0.000000000
30 4 5.431700000 1 0.000000000 -3.590000000 2 180.000000000 1.055600000 3 0.000000000 0.058320000 4 180.000000000
31 4 5.431700000 1 0.000000000 -3.590000000 2 180.000000000 1.055600000 3 0.000000000 0.058320000 4 180.000000000


Atoms

1         1   1 -0.11999999999999999556 53.2743980000 29.1425170000 47.8221290000
2         1   1 -0.11999999999999999556 51.2997470000 30.0790090000 47.5340710000
3         1   1 -0.20000000000000001110 52.2707660000 28.8512450000 45.2897180000
4         1   1 -0.20000000000000001110 52.1180930000 31.0189940000 45.0658560000
5         1   1 -0.20000000000000001110 54.0720230000 30.0845340000 45.3495050000
6         1   1 -0.23260000000000000120 54.2982140000 33.3386570000 49.4642790000
7         1   1 -0.23260000000000000120 52.1305930000 33.5892910000 49.3360920000
8         1   1 -0.11999999999999999556 53.9936910000 31.7566590000 51.7288310000
9         1   1 -0.11999999999999999556 53.0283930000 33.7375120000 51.8919510000
10        1   2 -0.36299999999999998934 53.0047370000 31.5197370000 49.1511350000
11        1   3  0.23999999999999999112 52.6246150000 30.1859610000 47.2347520000
12        1   3  0.12149999999999999689 53.1800570000 31.5135220000 47.7309610000
13        1   3  0.59999999999999997780 52.7711730000 30.0215300000 45.6974720000
14        1   4  0.64670000000000005258 53.1138250000 32.7269710000 49.7577710000
15        1   3  0.08999999999999999667 52.9656370000 32.5248650000 51.2793960000
16        1   5  0.02999999999999999889 54.2420460000 31.5855420000 47.4805080000
17        1   5  0.02999999999999999889 52.6240880000 32.3301690000 47.2621830000
18        1   5  0.14999999999999999445 52.0154180000 32.0406990000 51.5204150000
19        2   1 -0.11999999999999999556 35.1621510000 50.9673900000 23.6634050000
20        2   1 -0.11999999999999999556 36.6951870000 52.4520490000 24.2155230000
21        2   1 -0.20000000000000001110 36.9547630000 50.0653140000 25.5283510000
22        2   1 -0.20000000000000001110 36.4399610000 51.7127100000 26.8676130000
23        2   1 -0.20000000000000001110 34.9260480000 50.2369780000 26.3182550000
24        2   1 -0.23260000000000000120 32.3348380000 54.4873850000 24.6474700000
25        2   1 -0.23260000000000000120 34.2166790000 55.5989570000 24.6777270000
26        2   1 -0.11999999999999999556 32.4122490000 54.4079020000 21.8705410000
27        2   1 -0.11999999999999999556 32.5581920000 56.4482980000 22.7058060000
28        2   2 -0.36299999999999998934 34.1881270000 53.5211400000 23.8040840000
29        2   3  0.23999999999999999112 35.5784010000 51.8058760000 24.6531940000
30        2   3  0.12149999999999999689 34.4857520000 52.8050320000 25.0066980000
31        2   3  0.59999999999999997780 35.9914260000 50.9280440000 25.8658630000
32        2   4  0.64670000000000005258 33.4967390000 54.6769940000 23.9567380000
33        2   3  0.08999999999999999667 33.2121270000 55.2647850000 22.5597240000
34        2   5  0.02999999999999999889 33.5984640000 52.2717700000 25.3589570000
35        2   5  0.02999999999999999889 34.8565100000 53.4785510000 25.7843070000
36        2   5  0.14999999999999999445 34.1403490000 55.4244750000 22.0044520000
37        3   1 -0.11999999999999999556 25.7798460000 24.7274250000 56.3414810000
38        3   1 -0.11999999999999999556 27.0790070000 26.5081650000 56.3612070000
39        3   1 -0.20000000000000001110 28.1279820000 24.3685870000 57.7062940000
40        3   1 -0.20000000000000001110 27.6551140000 26.0444910000 59.0254990000
41        3   1 -0.20000000000000001110 26.3730040000 24.2761060000 59.0026740000
42        3   1 -0.23260000000000000120 22.6577690000 27.7945610000 57.8239650000
43        3   1 -0.23260000000000000120 24.2285570000 29.2108910000 57.2721840000
44        3   1 -0.11999999999999999556 22.0430180000 27.4121720000 55.1407760000
45        3   1 -0.11999999999999999556 21.9907310000 29.5290870000 55.7717460000
46        3   2 -0.36299999999999998934 24.3896720000 27.0732780000 56.5750160000
47        3   3  0.23999999999999999112 26.2596210000 25.7330190000 57.1254470000
48        3   3  0.12149999999999999689 25.1174580000 26.5619480000 57.6959710000
49        3   3  0.59999999999999997780 27.1311240000 25.0845930000 58.2352990000
50        3   4  0.64670000000000005258 23.5457420000 28.1018960000 56.8339530000
51        3   3  0.08999999999999999667 22.8063070000 28.4676860000 55.5310400000
52        3   5  0.02999999999999999889 24.4715210000 25.9271680000 58.3087950000
53        3   5  0.02999999999999999889 25.5328950000 27.3739960000 58.2990930000
54        3   5  0.14999999999999999445 23.5131970000 28.7208520000 54.7362840000
55        4   1 -0.11999999999999999556 22.4564460000 14.6513060000 51.7628840000
56        4   1 -0.11999999999999999556 23.9003640000 16.3117620000 51.8941520000
57        4   1 -0.20000000000000001110 25.0642490000 13.8779800000 51.4364670000
58        4   1 -0.20000000000000001110 25.5892240000 14.7102760000 53.3869140000
59        4   1 -0.20000000000000001110 24.1606810000 13.0634440000 53.2500810000
60        4   1 -0.23260000000000000120 21.0314020000 16.4371670000 55.7794000000
61        4   1 -0.23260000000000000120 22.3698480000 18.0613160000 55.1890350000
62        4   1 -0.11999999999999999556 19.1491940000 17.2976010000 53.9245160000
63        4   1 -0.11999999999999999556 19.7846010000 18.8699330000 55.3409260000
64        4   2 -0.36299999999999998934 21.7925510000 16.5095780000 53.6592540000
65        4   3  0.23999999999999999112 23.4239540000 15.2115600000 52.5413750000
66        4   3  0.12149999999999999689 22.8637810000 15.5930410000 53.9044010000
67        4   3  0.59999999999999997780 24.5888900000 14.1899330000 52.6459940000
68        4   4  0.64670000000000005258 21.3750400000 17.2342180000 54.7259790000
69        4   3  0.08999999999999999667 20.1806270000 18.1057700000 54.2878860000
70        4   5  0.02999999999999999889 22.4889470000 14.6999890000 54.4120340000
71        4   5  0.02999999999999999889 23.6547880000 16.0614560000 54.4965680000
72        4   5  0.14999999999999999445 20.4525270000 18.7508650000 53.4480370000
73        5   1 -0.11999999999999999556 14.4452860000 19.3842400000 25.8905000000
74        5   1 -0.11999999999999999556 15.2288260000 18.1702090000 27.5552640000
75        5   1 -0.20000000000000001110 12.6686140000 19.0519830000 27.9492040000
76        5   1 -0.20000000000000001110 14.0886210000 19.9283430000 29.3592160000
77        5   1 -0.20000000000000001110 13.3067880000 21.1265800000 27.7086170000
78        5   1 -0.23260000000000000120 18.4013540000 21.6758630000 26.5616470000
79        5   1 -0.23260000000000000120 18.8343170000 19.9537760000 27.8363190000
80        5   1 -0.11999999999999999556 18.8631520000 20.1316600000 24.2976190000
81        5   1 -0.11999999999999999556 20.5414480000 20.1262070000 25.7347950000
82        5   2 -0.36299999999999998934 17.0921180000 19.8476220000 26.4098310000
83        5   3  0.23999999999999999112 14.8925370000 19.4349770000 27.1763450000
84        5   3  0.12149999999999999689 16.0917820000 20.3652940000 27.2924490000
85        5   3  0.59999999999999997780 13.7038600000 19.8890710000 28.0666200000
86        5   4  0.64670000000000005258 18.3509770000 20.3124180000 26.6010410000
87        5   3  0.08999999999999999667 19.2673910000 19.7004500000 25.5222310000
88        5   5  0.02999999999999999889 15.8052500000 21.3758400000 26.9884290000
89        5   5  0.02999999999999999889 16.4431040000 20.3665590000 28.3279860000
90        5   5  0.14999999999999999445 19.2354630000 18.6080120000 25.5536300000
91        6   1 -0.11999999999999999556 42.4761700000 20.3052900000 49.0887830000
92        6   1 -0.11999999999999999556 44.1682880000 21.7034340000 49.2917010000
93        6   1 -0.20000000000000001110 44.5052140000 19.8526890000 47.3045860000
94        6   1 -0.20000000000000001110 45.9315550000 19.6027740000 48.9403290000
95        6   1 -0.20000000000000001110 44.2538020000 18.2195100000 48.7323890000
96        6   1 -0.23260000000000000120 43.1951970000 19.8029450000 53.6256430000
97        6   1 -0.23260000000000000120 44.4963880000 21.5301240000 53.3069200000
98        6   1 -0.11999999999999999556 40.9570920000 21.4410850000 53.4494950000
99        6   1 -0.11999999999999999556 42.4249970000 22.1013570000 54.9632590000
100       6   2 -0.36299999999999998934 43.0392090000 20.9457640000 51.6893460000
101       6   3  0.23999999999999999112 43.7694260000 20.4177670000 49.5021160000
102       6   3  0.12149999999999999689 43.8974900000 20.0516520000 50.9740930000
103       6   3  0.59999999999999997780 44.6325790000 19.5052710000 48.5888440000
104       6   4  0.64670000000000005258 43.2485480000 21.0279760000 53.0260360000
105       6   3  0.08999999999999999667 42.1936000000 21.9776780000 53.6287810000
106       6   5  0.02999999999999999889 43.5772060000 19.0171960000 51.1259270000
107       6   5  0.02999999999999999889 44.9392640000 20.1748270000 51.2828010000
108       6   5  0.14999999999999999445 42.2363380000 22.9626350000 53.1560690000
109       7   1 -0.11999999999999999556 33.8486220000 48.7006820000 53.3596500000
110       7   1 -0.11999999999999999556 32.7445330000 48.4153840000 55.2461380000
111       7   1 -0.20000000000000001110 31.4567250000 50.0330360000 53.4538900000
112       7   1 -0.20000000000000001110 32.0852060000 51.1006370000 55.2532780000
113       7   1 -0.20000000000000001110 33.1736890000 51.3805170000 53.3802100000
114       7   1 -0.23260000000000000120 37.2557960000 49.8009710000 56.2807770000
115       7   1 -0.23260000000000000120 35.8512150000 48.9971550000 57.7500840000
116       7   1 -0.11999999999999999556 37.8645090000 47.2245730000 55.4350300000
117       7   1 -0.11999999999999999556 38.1310520000 47.5335350000 57.6065920000
118       7   2 -0.36299999999999998934 35.4752110000 48.6226090000 55.5592550000
119       7   3  0.23999999999999999112 33.4666690000 49.3109620000 54.5162290000
120       7   3  0.12149999999999999689 34.6817910000 49.7851240000 55.3009620000
121       7   3  0.59999999999999997780 32.5160350000 50.4786900000 54.1361590000
122       7   4  0.64670000000000005258 36.4192660000 48.7500840000 56.5235330000
123       7   3  0.08999999999999999667 37.2114720000 47.4298220000 56.6099520000
124       7   5  0.02999999999999999889 35.2484140000 50.5049060000 54.7038150000
125       7   5  0.02999999999999999889 34.3459290000 50.2475030000 56.2332540000
126       7   5  0.14999999999999999445 36.5465260000 46.5854120000 56.8105580000
127       8   1 -0.11999999999999999556 16.8968580000 28.0176880000  1.5915580000
128       8   1 -0.11999999999999999556 16.7466910000 30.1315900000  2.1982810000
129       8   1 -0.20000000000000001110 18.5379190000 29.6939640000  0.1765520000
130       8   1 -0.20000000000000001110 19.4960600000 30.3660460000  2.0212290000
131       8   1 -0.20000000000000001110 19.6428440000 28.2731200000  1.4132590000
132       8   1 -0.23260000000000000120 17.5042400000 27.4355500000  6.1351970000
133       8   1 -0.23260000000000000120 16.8842180000 29.5310430000  6.1832660000
134       8   1 -0.11999999999999999556 14.8766280000 26.6558890000  5.6753820000
135       8   1 -0.11999999999999999556 15.1285750000 27.9146510000  7.4737780000
136       8   2 -0.36299999999999998934 16.5821680000 28.3446400000  4.2904880000
137       8   3  0.23999999999999999112 17.5431610000 29.0269410000  2.2394070000
138       8   3  0.12149999999999999689 17.8429610000 28.6364740000  3.6798280000
139       8   3  0.59999999999999997780 18.8312900000 29.3493200000  1.4340860000
140       8   4  0.64670000000000005258 16.5733780000 28.3054000000  5.6453700000
141       8   3  0.08999999999999999667 15.1578930000 27.9118630000  6.1140700000
142       8   5  0.02999999999999999889 18.4850290000 27.7514750000  3.6959030000
143       8   5  0.02999999999999999889 18.3384090000 29.4730470000  4.1802700000
144       8   5  0.14999999999999999445 14.4089070000 28.6093480000  5.7294140000
145       9   1 -0.11999999999999999556 52.3980470000 42.8760420000 23.0243560000
146       9   1 -0.11999999999999999556 53.9262420000 42.5440090000 21.4707730000
147       9   1 -0.20000000000000001110 53.3455960000 45.1843860000 21.8934610000
148       9   1 -0.20000000000000001110 52.7461160000 44.4964580000 19.9085330000
149       9   1 -0.20000000000000001110 51.2365480000 44.8294120000 21.4518600000
150       9   1 -0.23260000000000000120 50.0749100000 39.8031930000 20.4722820000
151       9   1 -0.23260000000000000120 52.0229210000 39.5815470000 19.5058670000
152       9   1 -0.11999999999999999556 50.9819610000 38.3509620000 22.6613290000
153       9   1 -0.11999999999999999556 51.2242180000 37.2980480000 20.7339290000
154       9   2 -0.36299999999999998934 51.8956000000 40.6801210000 21.4701280000
155       9   3  0.23999999999999999112 52.6333240000 42.9176140000 21.6831170000
156       9   3  0.12149999999999999689 51.6798080000 41.9919410000 20.9407590000
157       9   3  0.59999999999999997780 52.4938110000 44.3965070000 21.2301760000
158       9   4  0.64670000000000005258 51.4065990000 39.6538810000 20.7318650000
159       9   3  0.08999999999999999667 51.6712760000 38.3369140000 21.4892900000
160       9   5  0.02999999999999999889 50.6476830000 42.3065080000 21.1182400000
161       9   5  0.02999999999999999889 51.9081850000 42.0275320000 19.8719540000
162       9   5  0.14999999999999999445 52.7376500000 38.2094210000 21.6942690000
163      10   1 -0.11999999999999999556 58.3247810000  2.4732940000 16.1953220000
164      10   1 -0.11999999999999999556 56.4438860000  3.0218120000 15.1850710000
165      10   1 -0.20000000000000001110 58.6272420000  3.0584620000 13.5361270000
166      10   1 -0.20000000000000001110 57.7680610000  5.0436280000 13.8418790000
167      10   1 -0.20000000000000001110 59.6327390000  4.4945230000 14.8383570000
168      10   1 -0.23260000000000000120 56.9175370000  5.7256490000 19.1608400000
169      10   1 -0.23260000000000000120 55.0717420000  5.5601550000 18.0017540000
170      10   1 -0.11999999999999999556 56.3469470000  3.3229170000 20.4355760000
171      10   1 -0.11999999999999999556 54.7260730000  4.8168170000 20.5879460000
172      10   2 -0.36299999999999998934 56.6593370000  3.9780360000 17.7612710000
173      10   3  0.23999999999999999112 57.6263800000  3.5100670000 15.6537100000
174      10   3  0.12149999999999999689 57.3831590000  4.5957870000 16.6925620000
175      10   3  0.59999999999999997780 58.4338160000  4.0300230000 14.4332850000
176      10   4  0.64670000000000005258 56.0458450000  4.8204950000 18.6279960000
177      10   3  0.08999999999999999667 55.3825500000  3.9814300000 19.7389230000
178      10   5  0.02999999999999999889 58.3404940000  4.9793510000 17.0560480000
179      10   5  0.02999999999999999889 56.8008010000  5.4013190000 16.2367750000
180      10   5  0.14999999999999999445 54.6784530000  3.2587790000 19.3176790000
181      11   1 -0.11999999999999999556  8.6557550000 23.6882560000 12.3038310000
182      11   1 -0.11999999999999999556  7.5585840000 22.5212120000 13.8182520000
183      11   1 -0.20000000000000001110  9.9059950000 23.5836890000 14.7392340000
184      11   1 -0.20000000000000001110  9.9406190000 21.4006340000 14.6641630000
185      11   1 -0.20000000000000001110 11.0274400000 22.5629760000 13.1677360000
186      11   1 -0.23260000000000000120  8.0287590000 19.8366900000  9.8290040000
187      11   1 -0.23260000000000000120  6.6948180000 19.3448240000 11.4892740000
188      11   1 -0.11999999999999999556  6.1480880000 21.6230070000  8.8311090000
189      11   1 -0.11999999999999999556  5.3594810000 19.5821450000  9.1395970000
190      11   2 -0.36299999999999998934  7.4412390000 21.4611890000 11.2765650000
191      11   3  0.23999999999999999112  8.6541810000 22.5222000000 13.0083290000
192      11   3  0.12149999999999999689  8.6257520000 21.3255640000 12.0678970000
193      11   3  0.59999999999999997780  9.9103540000 22.5266100000 13.9214310000
194      11   4  0.64670000000000005258  7.0377820000 20.3485800000 10.6157740000
195      11   3  0.08999999999999999667  5.7979700000 20.7043440000  9.7705250000
196      11   5  0.02999999999999999889  9.5120930000 21.3387120000 11.4276170000
197      11   5  0.02999999999999999889  8.6001380000 20.4069050000 12.6604970000
198      11   5  0.14999999999999999445  4.9986390000 21.1091510000 10.3971230000
199      12   1 -0.11999999999999999556 21.9058650000 35.6019780000 39.1347320000
200      12   1 -0.11999999999999999556 23.3344240000 35.4317890000 40.8049110000
201      12   1 -0.20000000000000001110 21.7036920000 33.2519800000 40.5282380000
202      12   1 -0.20000000000000001110 21.3414010000 34.3459370000 42.3841920000
203      12   1 -0.20000000000000001110 19.9286350000 34.5086060000 40.7261380000
204      12   1 -0.23260000000000000120 20.9789740000 39.6317530000 41.1973120000
205      12   1 -0.23260000000000000120 22.7732230000 39.1197240000 42.3358770000
206      12   1 -0.11999999999999999556 22.5482350000 40.3120140000 39.0068070000
207      12   1 -0.11999999999999999556 23.1046460000 41.3738280000 40.8629180000
208      12   2 -0.36299999999999998934 22.3030170000 37.9643070000 40.4582960000
209      12   3  0.23999999999999999112 22.0211820000 35.6158180000 40.4921250000
210      12   3  0.12149999999999999689 21.5148230000 36.9335610000 41.0616070000
211      12   3  0.59999999999999997780 21.2346120000 34.3940100000 41.0400660000
212      12   4  0.64670000000000005258 22.2587750000 39.1766260000 41.0629820000
213      12   3  0.08999999999999999667 23.1066700000 40.1658780000 40.2379950000
214      12   5  0.02999999999999999889 20.4599440000 37.0648850000 40.8052520000
215      12   5  0.02999999999999999889 21.6425220000 36.9251640000 42.1476040000
216      12   5  0.14999999999999999445 24.1347220000 39.8088880000 40.1326880000
217      13   1 -0.11999999999999999556 33.7381490000 47.6113010000 28.0255910000
218      13   1 -0.11999999999999999556 35.6749880000 48.6588490000 27.9229120000
219      13   1 -0.20000000000000001110 35.8536330000 45.9707450000 27.4437620000
220      13   1 -0.20000000000000001110 36.8653260000 46.5680190000 29.2855830000
221      13   1 -0.20000000000000001110 34.9468630000 45.5278190000 29.3804310000
222      13   1 -0.23260000000000000120 33.5169460000 49.7889890000 32.0951360000
223      13   1 -0.23260000000000000120 35.2566820000 50.8386900000 31.2893610000
224      13   1 -0.11999999999999999556 31.8451680000 51.2534660000 30.4265700000
225      13   1 -0.11999999999999999556 33.1535750000 52.5041450000 31.6938740000
226      13   2 -0.36299999999999998934 33.9958990000 49.5867360000 29.9021220000
227      13   3  0.23999999999999999112 34.9260560000 47.7969420000 28.6662320000
228      13   3  0.12149999999999999689 34.7015170000 48.3526050000 30.0655100000
229      13   3  0.59999999999999997780 35.6653180000 46.4313240000 28.6841820000
230      13   4  0.64670000000000005258 33.9881360000 50.4131990000 30.9764690000
231      13   3  0.08999999999999999667 33.1292260000 51.6482430000 30.6372220000
232      13   5  0.02999999999999999889 34.1025130000 47.6487880000 30.6499490000
233      13   5  0.02999999999999999889 35.6710240000 48.5140310000 30.5448450000
234      13   5  0.14999999999999999445 33.5063240000 52.1556510000 29.7451690000
235      14   1 -0.11999999999999999556 23.5143410000  7.6486750000 47.3990640000
236      14   1 -0.11999999999999999556 24.3517460000  9.6332470000 47.8675400000
237      14   1 -0.20000000000000001110 22.4818530000  8.7764870000 49.6722180000
238      14   1 -0.20000000000000001110 21.8242770000 10.5276800000 48.5437320000
239      14   1 -0.20000000000000001110 20.9968500000  8.5586020000 48.0859030000
240      14   1 -0.23260000000000000120 22.8270840000  9.6333290000 43.2830860000
241      14   1 -0.23260000000000000120 24.0936010000 11.1866560000 44.1554050000
242      14   1 -0.11999999999999999556 25.0520140000  8.0094880000 42.9136630000
243      14   1 -0.11999999999999999556 25.2517980000 10.0120450000 42.0015020000
244      14   2 -0.36299999999999998934 23.9630840000  9.1811880000 45.1764120000
245      14   3  0.23999999999999999112 23.2410110000  8.9831570000 47.4203750000
246      14   3  0.12149999999999999689 22.8549470000  9.4754140000 46.0326450000
247      14   3  0.59999999999999997780 22.1136660000  9.2123010000 48.4636060000
248      14   4  0.64670000000000005258 23.9813240000  9.8277640000 43.9852250000
249      14   3  0.08999999999999999667 25.2004380000  9.3347050000 43.1797410000
250      14   5  0.02999999999999999889 21.9610360000  8.9472510000 45.6895710000
251      14   5  0.02999999999999999889 22.6658670000 10.5515850000 46.0758960000
252      14   5  0.14999999999999999445 26.1285340000  9.4939450000 43.7353530000
253      15   1 -0.11999999999999999556 44.6097540000 50.7878560000  2.3849250000
254      15   1 -0.11999999999999999556 44.6605940000 48.6089390000  2.0548030000
255      15   1 -0.20000000000000001110 42.2897650000 49.7729610000  1.3395250000
256      15   1 -0.20000000000000001110 42.0828730000 48.4115360000  3.0354840000
257      15   1 -0.20000000000000001110 42.0312460000 50.5717260000  3.3555220000
258      15   1 -0.23260000000000000120 46.0264990000 49.5240790000  6.5977800000
259      15   1 -0.23260000000000000120 46.2720600000 47.5906680000  5.6081070000
260      15   1 -0.11999999999999999556 48.3188670000 50.4708830000  5.3438850000
261      15   1 -0.11999999999999999556 48.6342080000 48.6016440000  6.4790900000
262      15   2 -0.36299999999999998934 45.9514250000 49.4314660000  4.3471360000
263      15   3  0.23999999999999999112 44.1369650000 49.5931930000  2.8379790000
264      15   3  0.12149999999999999689 44.5223370000 49.3798150000  4.2950700000
265      15   3  0.59999999999999997780 42.5984020000 49.5895330000  2.6269000000
266      15   4  0.64670000000000005258 46.5231440000 48.9346860000  5.4712660000
267      15   3  0.08999999999999999667 48.0487110000 49.1385690000  5.3751980000
268      15   5  0.02999999999999999889 44.0923200000 50.1749210000  4.9103940000
269      15   5  0.02999999999999999889 44.1515440000 48.4046920000  4.6228130000
270      15   5  0.14999999999999999445 48.4525960000 48.6628250000  4.4774400000
271      16   1 -0.11999999999999999556 19.9991490000 25.0794590000 53.8494610000
272      16   1 -0.11999999999999999556 20.4404640000 23.4211330000 52.4658280000
273      16   1 -0.20000000000000001110 22.1630340000 23.5697200000 54.5866950000
274      16   1 -0.20000000000000001110 23.1404450000 23.9789530000 52.6762620000
275      16   1 -0.20000000000000001110 22.7022380000 25.6174680000 54.0527620000
276      16   1 -0.23260000000000000120 20.0728590000 27.5114660000 49.9210570000
277      16   1 -0.23260000000000000120 20.1021550000 25.5133280000 49.0353850000
278      16   1 -0.11999999999999999556 17.3731370000 27.2224200000 50.5140120000
279      16   1 -0.11999999999999999556 17.8560750000 26.8885010000 48.3838830000
280      16   2 -0.36299999999999998934 19.5999170000 25.7327970000 51.2219310000
281      16   3  0.23999999999999999112 20.8672460000 24.6417460000 52.8950910000
282      16   3  0.12149999999999999689 20.9314860000 25.6248880000 51.7347190000
283      16   3  0.59999999999999997780 22.2481190000 24.4408660000 53.5766940000
284      16   4  0.64670000000000005258 19.4810550000 26.2833690000 49.9890230000
285      16   3  0.08999999999999999667 17.9823360000 26.3789680000 49.6385170000
286      16   5  0.02999999999999999889 21.2784160000 26.5975280000 52.0943650000
287      16   5  0.02999999999999999889 21.6153800000 25.2358990000 50.9752840000
288      16   5  0.14999999999999999445 17.5047540000 25.3965530000 49.6854180000
289      17   1 -0.11999999999999999556 45.9155250000 27.6950800000 42.3939050000
290      17   1 -0.11999999999999999556 45.1567060000 26.7576150000 40.5487500000
291      17   1 -0.20000000000000001110 45.9929900000 24.9568700000 42.4316590000
292      17   1 -0.20000000000000001110 47.2340580000 24.9347880000 40.6339320000
293      17   1 -0.20000000000000001110 47.9808940000 25.8602790000 42.4662020000
294      17   1 -0.23260000000000000120 48.4711530000 30.0659010000 39.3606850000
295      17   1 -0.23260000000000000120 47.1127490000 29.1213880000 37.9322370000
296      17   1 -0.11999999999999999556 46.4651670000 31.8340440000 40.1178740000
297      17   1 -0.11999999999999999556 46.8669970000 31.8232150000 37.9451800000
298      17   2 -0.36299999999999998934 46.6021580000 29.0664050000 40.1271550000
299      17   3  0.23999999999999999112 46.2829640000 27.0195690000 41.2693260000
300      17   3  0.12149999999999999689 47.2663570000 27.8397580000 40.4462910000
301      17   3  0.59999999999999997780 46.8789250000 25.6570850000 41.7167780000
302      17   4  0.64670000000000005258 47.1532580000 29.7976580000 39.1277160000
303      17   3  0.08999999999999999667 46.3482060000 31.1042470000 38.9764970000
304      17   5  0.02999999999999999889 48.1651610000 28.0386050000 41.0364990000
305      17   5  0.02999999999999999889 47.5234070000 27.2840830000 39.5402470000
306      17   5  0.14999999999999999445 45.2925970000 30.8948410000 38.7834610000
307      18   1 -0.11999999999999999556 19.9989160000  5.6723940000  8.5158730000
308      18   1 -0.11999999999999999556 20.4537890000  4.5220990000  6.6912750000
309      18   1 -0.20000000000000001110 20.1281060000  7.2023940000  6.2470340000
310      18   1 -0.20000000000000001110 18.5689000000  5.9960650000  5.3056480000
311      18   1 -0.20000000000000001110 18.1241360000  7.1399280000  7.1126560000
312      18   1 -0.23260000000000000120 16.7424920000  2.4248620000  8.9649690000
313      18   1 -0.23260000000000000120 17.8649020000  1.4982030000  7.3342240000
314      18   1 -0.11999999999999999556 18.7237460000  1.6823800000 10.7669110000
315      18   1 -0.11999999999999999556 17.9127900000 -0.0044670000  9.5925680000
316      18   2 -0.36299999999999998934 18.7913250000  3.2170280000  8.4606230000
317      18   3  0.23999999999999999112 19.4714990000  5.1942540000  7.3543140000
318      18   3  0.12149999999999999689 18.2913790000  4.2753960000  7.6374690000