Generated by pymatgen.io.lammps.data.LammpsData

17558  atoms
16571  bonds
28592  angles
27865  dihedrals
 1256  impropers

   17  atom types
   16  bond types
   24  angle types
   19  dihedral types
    2  improper types

-0.2500000000 60.2500000000  xlo xhi
-0.2500000000 60.2500000000  ylo yhi
-0.2500000000 60.2500000000  zlo zhi

Masses

1   14.01000
2   32.06000
3   16.00000
4   12.01000
5   19.00000
6   15.99940
7   14.00670
8   12.01070
9   12.01070
10   1.00794
11  16.00000
12  12.01000
13  12.01000
14   1.00800
15  32.06000
16  32.06000
17   6.94100

Pair Coeffs

1       0.17  3.249999
2       0.25  3.549340
3       0.21  2.959566
4      0.066  3.499450
5      0.053  2.948875
6     0.2100  2.960000
7     0.1700  3.250000
8     0.0660  3.500000
9     0.1050  3.750000
10    0.0300  2.500000
11      0.14  2.900000
12     0.066  3.500000
13     0.066  3.500000
14      0.03  2.500000
15  0.344001  3.590322
16  0.344001  3.590322
17  0.165057  1.506000

Bond Coeffs

1   441.80  1.323
2   235.40  1.818
3   637.10  1.442
4   372.00  1.570
5   570.00  1.229
6   337.00  1.449
7   490.00  1.335
8   340.00  1.090
9   350.00  1.101
10  320.00  1.410
11  320.00  1.380
12  268.00  1.529
13  340.00  1.090
14  340.00  1.090
15  157.87  2.133
16  154.36  2.117


Angle Coeffs

1    93.30  107.100
2    82.90  111.800
3   104.00  102.600
4   115.80  118.500
5    94.30  113.600
6    97.50  100.200
7    80.20  125.600
8    50.00  118.000
9    50.00  121.900
10   35.00  109.500
11   33.00  107.800
12   80.00  122.900
13   50.00  124.154
14   50.00  110.387
15   60.00  109.500
16   50.00  109.500
17   35.00  109.500
18   37.50  110.700
19   33.00  107.800
20   92.60  111.550
21   35.00  109.500
22   33.00  109.500
23   73.56  112.740
24   73.56  112.740


Dihedral Coeffs

1 1 0.173400000 3 0.000000000
2 1 0.158000000 3 0.000000000
3 1 -0.001800000 3 0.000000000
4 3 3.916460000 1 0.000000000 -1.245000000 2 180.000000000 -0.381800000 3 0.000000000
5 1 0.000000000 1 0.000000000
6 1 0.000000000 1 0.000000000
7 1 3.044500000 2 180.000000000
8 3 0.646000000 1 0.000000000 0.001000000 2 180.000000000 0.304000000 3 0.000000000
9 3 0.062500000 1 0.000000000 -0.011000000 2 180.000000000 0.280500000 3 0.000000000
10 3 0.062500000 1 0.000000000 -0.011000000 2 180.000000000 0.280500000 3 0.000000000
11 1 0.370500000 3 0.000000000
12 1 0.370500000 3 0.000000000
13 3 -0.533500000 1 0.000000000 -0.783500000 2 180.000000000 0.337500000 3 0.000000000
14 1 0.370500000 3 0.000000000
15 3 1.119000000 1 0.000000000 -1.163500000 2 180.000000000 -0.341500000 3 0.000000000
16 1 0.234000000 3 0.000000000
17 1 0.150000000 3 0.000000000
18 4 5.431700000 1 0.000000000 -3.590000000 2 180.000000000 1.055600000 3 0.000000000 0.058320000 4 180.000000000
19 4 5.431700000 1 0.000000000 -3.590000000 2 180.000000000 1.055600000 3 0.000000000 0.058320000 4 180.000000000


Improper Coeffs

1 1.000000000 -1 2
2 10.500000000 -1 2


Atoms

1         1   1 -0.46692607003891056783 39.6864450000 26.1236270000 42.1470470000
2         1   2  0.72161301733286176141 38.9995730000 25.0870120000 41.1035790000
3         1   3 -0.37495578351609482048 38.3630300000 25.7338830000 39.9470520000
4         1   3 -0.37495578351609482048 39.7116200000 23.8175890000 40.8852250000
5         1   4  0.24761230986911919594 37.5580000000 24.6302550000 42.2329540000
6         1   5 -0.11319419879731164313 36.8095840000 25.6961250000 42.5648000000
7         1   5 -0.11319419879731164313 37.9747600000 24.0353110000 43.3637650000
8         1   5 -0.11319419879731164313 36.7633840000 23.7566210000 41.5768840000
9         1   2  0.72161301733286176141 41.1899790000 26.6712200000 42.0046740000
10        1   3 -0.37495578351609482048 41.2903090000 27.9654320000 42.6909980000
11        1   3 -0.37495578351609482048 41.8139450000 26.4970790000 40.6851300000
12        1   4  0.24761230986911919594 42.1923300000 25.5333310000 43.1355390000
13        1   5 -0.11319419879731164313 41.7185550000 25.5554090000 44.3969320000
14        1   5 -0.11319419879731164313 42.1810350000 24.2621420000 42.7071320000
15        1   5 -0.11319419879731164313 43.4783840000 25.9482300000 43.1731010000
16        2   1 -0.46692607003891056783 26.0681310000 48.1750670000 23.2861860000
17        2   2  0.72161301733286176141 27.0602370000 48.9989360000 24.2721660000
18        2   3 -0.37495578351609482048 28.4409670000 48.4945670000 24.2916090000
19        2   3 -0.37495578351609482048 26.8508830000 50.4543300000 24.3363770000
20        2   4  0.24761230986911919594 26.3027480000 48.3430720000 25.8716360000
21        2   5 -0.11319419879731164313 26.3788710000 47.0043610000 25.9632170000
22        2   5 -0.11319419879731164313 25.0151320000 48.7052170000 26.0030710000
23        2   5 -0.11319419879731164313 26.9860910000 48.8671120000 26.9125490000
24        2   2  0.72161301733286176141 25.8907110000 48.4978730000 21.7225170000
25        2   3 -0.37495578351609482048 25.4410070000 47.2807930000 21.0350760000
26        2   3 -0.37495578351609482048 26.9394710000 49.3306150000 21.1163020000
27        2   4  0.24761230986911919594 24.3488200000 49.5920120000 21.6609900000
28        2   5 -0.11319419879731164313 23.2876390000 48.9745540000 22.2166010000
29        2   5 -0.11319419879731164313 24.5343180000 50.7581080000 22.2976940000
30        2   5 -0.11319419879731164313 24.0368920000 49.8655860000 20.3743880000
31        3   1 -0.46692607003891056783 18.0780700000 18.9654380000 32.7147000000
32        3   2  0.72161301733286176141 18.8894200000 18.2390220000 31.5108640000
33        3   3 -0.37495578351609482048 18.9778520000 16.7776100000 31.6436690000
34        3   3 -0.37495578351609482048 18.6992760000 18.8044840000 30.1654190000
35        3   4  0.24761230986911919594 20.5899440000 18.8586060000 32.0461980000
36        3   5 -0.11319419879731164313 20.9147650000 18.4558210000 33.2865940000
37        3   5 -0.11319419879731164313 20.6737470000 20.1991920000 31.9994050000
38        3   5 -0.11319419879731164313 21.5125320000 18.3585140000 31.1954240000
39        3   2  0.72161301733286176141 16.4846590000 19.1696590000 32.7235500000
40        3   3 -0.37495578351609482048 16.0287290000 19.2824740000 34.1147700000
41        3   3 -0.37495578351609482048 15.7264960000 18.3421170000 31.7742260000
42        3   4  0.24761230986911919594 16.2532220000 20.9320450000 32.0764140000
43        3   5 -0.11319419879731164313 16.9238390000 21.8234420000 32.8325540000
44        3   5 -0.11319419879731164313 16.6719290000 21.0608790000 30.8084760000
45        3   5 -0.11319419879731164313 14.9430920000 21.2627400000 32.1174870000
46        4   1 -0.46692607003891056783 45.9936780000 35.0584740000 32.5623900000
47        4   2  0.72161301733286176141 45.1212110000 34.1817850000 31.5110060000
48        4   3 -0.37495578351609482048 43.6670670000 34.3108650000 31.6841690000
49        4   3 -0.37495578351609482048 45.6528920000 34.0919870000 30.1415620000
50        4   4  0.24761230986911919594 45.5358840000 32.5123410000 32.2877000000
51        4   5 -0.11319419879731164313 45.1437730000 32.4327430000 33.5707600000
52        4   5 -0.11319419879731164313 46.8513970000 32.2435210000 32.2281880000
53        4   5 -0.11319419879731164313 44.8872010000 31.5488750000 31.5977570000
54        4   2  0.72161301733286176141 46.4028540000 36.5935160000 32.3237230000
55        4   3 -0.37495578351609482048 46.6287290000 37.2321570000 33.6264930000
56        4   3 -0.37495578351609482048 45.6436500000 37.3059650000 31.2859950000
57        4   4  0.24761230986911919594 48.1533890000 36.4876280000 31.6146620000
58        4   5 -0.11319419879731164313 48.9795640000 35.8236340000 32.4468930000
59        4   5 -0.11319419879731164313 48.1766330000 35.8714050000 30.4233140000
60        4   5 -0.11319419879731164313 48.6524370000 37.7329710000 31.4486510000
61        5   1 -0.46692607003891056783 48.9182090000 24.7773270000 48.4704180000
62        5   2  0.72161301733286176141 49.8229720000 24.7264140000 49.8172670000
63        5   3 -0.37495578351609482048 49.3833420000 25.6531410000 50.8703990000
64        5   3 -0.37495578351609482048 50.3140860000 23.3988020000 50.2202290000
65        5   4  0.24761230986911919594 51.3262900000 25.5721610000 49.0511110000
66        5   5 -0.11319419879731164313 51.0429730000 26.8031990000 48.5921940000
67        5   5 -0.11319419879731164313 51.8478530000 24.8526510000 48.0428150000
68        5   5 -0.11319419879731164313 52.2766320000 25.6956620000 50.0033060000
69        5   2  0.72161301733286176141 47.5814870000 23.9120630000 48.2577340000
70        5   3 -0.37495578351609482048 46.7250760000 24.5950060000 47.2798580000
71        5   3 -0.37495578351609482048 46.9853160000 23.3427520000 49.4748290000
72        5   4  0.24761230986911919594 48.1743980000 22.3982530000 47.2906830000
73        5   5 -0.11319419879731164313 48.7826000000 22.7575870000 46.1430630000
74        5   5 -0.11319419879731164313 49.0322570000 21.6516920000 48.0022340000
75        5   5 -0.11319419879731164313 47.1157470000 21.6218850000 46.9681980000
76        6   1 -0.46692607003891056783 21.6143660000  4.9192180000 34.6967960000
77        6   2  0.72161301733286176141 21.5049920000  3.6356310000 33.7090540000
78        6   3 -0.37495578351609482048 21.3484340000  2.3522010000 34.4086810000
79        6   3 -0.37495578351609482048 20.7581770000  3.8406920000 32.4575190000
80        6   4  0.24761230986911919594 23.3180890000  3.6619330000 33.1853770000
81        6   5 -0.11319419879731164313 24.1544520000  3.5186950000 34.2276380000
82        6   5 -0.11319419879731164313 23.6373580000  4.7952610000 32.5372890000
83        6   5 -0.11319419879731164313 23.5321260000  2.6300630000 32.3400910000
84        6   2  0.72161301733286176141 20.3438410000  5.7236760000 35.2619120000
85        6   3 -0.37495578351609482048 20.7195680000  6.3798980000 36.5205990000
86        6   3 -0.37495578351609482048 19.0499700000  5.0336200000 35.1590780000
87        6   4  0.24761230986911919594 20.1741600000  7.1875440000 34.0758870000
88        6   5 -0.11319419879731164313 21.3074570000  7.9153320000 34.0308900000
89        6   5 -0.11319419879731164313 19.8817940000  6.7919270000 32.8278520000
90        6   5 -0.11319419879731164313 19.1805680000  8.0013250000 34.4978140000
91        7   1 -0.46692607003891056783 19.9363830000 39.8988560000 35.4782320000
92        7   2  0.72161301733286176141 19.1601420000 38.7472210000 34.6377690000
93        7   3 -0.37495578351609482048 17.7182090000 38.6721550000 34.9141270000
94        7   3 -0.37495578351609482048 19.6147010000 38.5347960000 33.2541590000
95        7   4  0.24761230986911919594 19.8946510000 37.3006430000 35.6022180000
96        7   5 -0.11319419879731164313 19.6004690000 37.3564490000 36.9124350000
97        7   5 -0.11319419879731164313 21.2304630000 37.2349090000 35.4693020000
98        7   5 -0.11319419879731164313 19.3752020000 36.1541760000 35.1114400000
99        7   2  0.72161301733286176141 20.0679000000 41.4247400000 34.9933400000
100       7   3 -0.37495578351609482048 20.2630080000 42.2811280000 36.1700400000
101       7   3 -0.37495578351609482048 19.1383570000 41.8438310000 33.9344880000
102       7   4  0.24761230986911919594 21.7648870000 41.4874190000 34.1598750000
103       7   5 -0.11319419879731164313 22.7396820000 41.0948890000 35.0035320000
104       7   5 -0.11319419879731164313 21.8179820000 40.7087720000 33.0687890000
105       7   5 -0.11319419879731164313 22.0376970000 42.7556470000 33.7795350000
106       8   1 -0.46692607003891056783 18.6794660000 13.4556390000 25.3725580000
107       8   2  0.72161301733286176141 19.4841290000 14.5267980000 24.4558650000
108       8   3 -0.37495578351609482048 20.9458020000 14.4588300000 24.5975500000
109       8   3 -0.37495578351609482048 18.9266870000 14.7857020000 23.1185720000
110       8   4  0.24761230986911919594 18.9877490000 16.0368380000 25.4735270000
111       8   5 -0.11319419879731164313 19.3948940000 15.9497420000 26.7514060000
112       8   5 -0.11319419879731164313 17.6583340000 16.2341780000 25.4638740000
113       8   5 -0.11319419879731164313 19.5697930000 17.1274810000 24.9287350000
114       8   2  0.72161301733286176141 18.3542870000 11.9511000000 24.9128160000
115       8   3 -0.37495578351609482048 18.1855580000 11.1158110000 26.1086060000
116       8   3 -0.37495578351609482048 19.1362160000 11.4445020000 23.7758020000
117       8   4  0.24761230986911919594 16.5896030000 12.0576250000 24.2398390000
118       8   5 -0.11319419879731164313 15.7403270000 12.5426730000 25.1669420000
119       8   5 -0.11319419879731164313 16.5126720000 12.8398490000 23.1527380000
120       8   5 -0.11319419879731164313 16.1594240000 10.8232100000 23.8953800000
121       9   1 -0.46692607003891056783 52.9169430000 51.8097940000 29.1217880000
122       9   2  0.72161301733286176141 51.5754790000 52.3218650000 28.3645260000
123       9   3 -0.37495578351609482048 51.8299750000 52.9900690000 27.0800350000
124       9   3 -0.37495578351609482048 50.3953210000 51.4490780000 28.4722140000
125       9   4  0.24761230986911919594 51.2259740000 53.7367260000 29.5638020000
126       9   5 -0.11319419879731164313 52.2337160000 54.6244310000 29.6163860000
127       9   5 -0.11319419879731164313 50.9863880000 53.2919400000 30.8092520000
128       9   5 -0.11319419879731164313 50.1221130000 54.3906180000 29.1407260000
129       9   2  0.72161301733286176141 53.6040580000 50.3821460000 28.8563860000
130       9   3 -0.37495578351609482048 55.0288230000 50.4702850000 29.2004290000
131       9   3 -0.37495578351609482048 53.1942360000 49.6919000000 27.6249390000
132       9   4  0.24761230986911919594 52.9192890000 49.2889550000 30.2399970000
133       9   5 -0.11319419879731164313 53.1883490000 49.8091010000 31.4537180000
134       9   5 -0.11319419879731164313 51.5915580000 49.1251660000 30.1405750000
135       9   5 -0.11319419879731164313 53.4947490000 48.0671510000 30.1806140000
136      10   1 -0.46692607003891056783 15.0883340000 34.7489680000  6.8847000000
137      10   2  0.72161301733286176141 13.8502160000 33.8409440000  6.3576830000
138      10   3 -0.37495578351609482048 14.0071730000 33.3549600000  4.9791450000
139      10   3 -0.37495578351609482048 13.2384210000 32.9393760000  7.3471310000
140      10   4  0.24761230986911919594 12.6315000000 35.2745020000  6.2097130000
141      10   5 -0.11319419879731164313 13.0564720000 36.2221640000  5.3566810000
142      10   5 -0.11319419879731164313 12.3881510000 35.8516980000  7.3988340000
143      10   5 -0.11319419879731164313 11.4608600000 34.7913090000  5.7393910000
144      10   2  0.72161301733286176141 16.4127930000 34.1466500000  7.5657010000
145      10   3 -0.37495578351609482048 17.5180840000 35.0937950000  7.3724630000
146      10   3 -0.37495578351609482048 16.6422800000 32.7091340000  7.3614060000
147      10   4  0.24761230986911919594 16.0718320000 34.2937490000  9.4205500000
148      10   5 -0.11319419879731164313 15.8071680000 35.5679840000  9.7703230000
149      10   5 -0.11319419879731164313 15.0362200000 33.5317100000  9.8031530000
150      10   5 -0.11319419879731164313 17.1606670000 33.8953050000 10.1156510000
151      11   1 -0.46692607003891056783 11.7855920000  7.6840680000  5.7451480000
152      11   2  0.72161301733286176141 12.7208280000  8.6210530000  4.8056890000
153      11   3 -0.37495578351609482048 14.1631250000  8.3999620000  4.9847940000
154      11   3 -0.37495578351609482048 12.2211900000  8.8822520000  3.4461800000
155      11   4  0.24761230986911919594 12.3741580000 10.2181140000  5.7498630000
156      11   5 -0.11319419879731164313 12.7445020000 10.1414290000  7.0395500000
157      11   5 -0.11319419879731164313 11.0749840000 10.5588530000  5.7006130000
158      11   5 -0.11319419879731164313 13.0831390000 11.2145530000  5.1758120000
159      11   2  0.72161301733286176141 11.3056880000  6.2058760000  5.3384770000
160      11   3 -0.37495578351609482048 11.0229810000  5.4455480000  6.5624340000
161      11   3 -0.37495578351609482048 12.0488900000  5.5690960000  4.2416560000
162      11   4  0.24761230986911919594  9.5767760000  6.4757840000  4.6198890000
163      11   5 -0.11319419879731164313  8.7683280000  7.0896020000  5.5062870000
164      11   5 -0.11319419879731164313  9.6074220000  7.2148540000  3.5007740000
165      11   5 -0.11319419879731164313  9.0200440000  5.2822170000  4.3150420000
166      12   1 -0.46692607003891056783 24.8208910000 33.5075130000 18.5283360000
167      12   2  0.72161301733286176141 23.7415440000 33.0615530000 17.4008080000
168      12   3 -0.37495578351609482048 22.3952860000 33.6148300000 17.6073410000
169      12   3 -0.37495578351609482048 24.2468810000 32.9587960000 16.0223300000
170      12   4  0.24761230986911919594 23.6043240000 31.2726780000 17.9867660000
171      12   5 -0.11319419879731164313 23.1810870000 31.1814410000 19.2591160000
172      12   5 -0.11319419879731164313 24.7732990000 30.6180810000 17.8800680000
173      12   5 -0.11319419879731164313 22.7036760000 30.6368090000 17.2060100000
174      12   2  0.72161301733286176141 25.6891090000 34.8569480000 18.4511000000
175      12   3 -0.37495578351609482048 26.0750320000 35.2510940000 19.8119090000
176      12   3 -0.37495578351609482048 25.2082540000 35.8760730000 17.5071630000
177      12   4  0.24761230986911919594 27.3351330000 34.2912530000 17.7101890000
178      12   5 -0.11319419879731164313 27.8987720000 33.3191890000 18.4541410000
179      12   5 -0.11319419879731164313 27.1907700000 33.8292990000 16.4590540000
180      12   5 -0.11319419879731164313 28.1978210000 35.3313700000 17.6726280000
181      13   1 -0.46692607003891056783 15.1585730000 49.9515690000 10.1887570000
182      13   2  0.72161301733286176141 15.1270410000 50.8489800000 11.5411060000
183      13   3 -0.37495578351609482048 13.8179780000 51.4523570000 11.8300200000
184      13   3 -0.37495578351609482048 15.9267930000 50.3494200000 12.6711330000
185      13   4  0.24761230986911919594 16.1480990000 52.2696620000 10.8330430000
186      13   5 -0.11319419879731164313 15.5704720000 52.8284610000  9.7558150000
187      13   5 -0.11319419879731164313 17.3880570000 51.8770170000 10.4943460000
188      13   5 -0.11319419879731164313 16.2634040000 53.2250080000 11.7812500000
189      13   2  0.72161301733286176141 14.7648220000 48.3948960000 10.1390230000
190      13   3 -0.37495578351609482048 14.3257880000 48.0600160000  8.7784370000
191      13   3 -0.37495578351609482048 14.0091410000 47.8870760000 11.2931110000
192      13   4  0.24761230986911919594 16.4300300000 47.5054410000 10.2586360000
193      13   5 -0.11319419879731164313 17.2633690000 47.8913650000  9.2723950000
194      13   5 -0.11319419879731164313 17.0381710000 47.7330080000 11.4325010000
195      13   5 -0.11319419879731164313 16.2425220000 46.1720290000 10.1388930000
196      14   1 -0.46692607003891056783 53.3572820000 47.6534730000 11.6826340000
197      14   2  0.72161301733286176141 54.9216850000 48.0789540000 11.6001710000
198      14   3 -0.37495578351609482048 55.1438980000 49.5276310000 11.4855450000
199      14   3 -0.37495578351609482048 55.8523880000 47.2964220000 12.4293630000
200      14   4  0.24761230986911919594 55.1889290000 47.4272640000  9.8491340000
201      14   5 -0.11319419879731164313 54.3814460000 48.0200920000  8.9531120000
202      14   5 -0.11319419879731164313 55.0034170000 46.0982320000  9.7740220000
203      14   5 -0.11319419879731164313 56.4649910000 47.6858260000  9.4887360000
204      14   2  0.72161301733286176141 52.5192560000 47.5878660000 13.0516300000
205      14   3 -0.37495578351609482048 51.0946730000 47.7679970000 12.7447010000
206      14   3 -0.37495578351609482048 53.1105280000 48.2895480000 14.2000620000
207      14   4  0.24761230986911919594 52.6011010000 45.7628090000 13.5423660000
208      14   5 -0.11319419879731164313 52.1170470000 44.9707790000 12.5654100000
209      14   5 -0.11319419879731164313 53.8549520000 45.3713960000 13.8148270000
210      14   5 -0.11319419879731164313 51.8511180000 45.5555050000 14.6478230000
211      15   1 -0.46692607003891056783 37.7822700000  6.8418240000 54.5998980000
212      15   2  0.72161301733286176141 38.4133730000  8.3353240000 54.6796280000
213      15   3 -0.37495578351609482048 38.0986990000  9.1820160000 53.5197680000
214      15   3 -0.37495578351609482048 38.4352820000  8.9611310000 56.0115480000
215      15   4  0.24761230986911919594 40.1959510000  7.7886610000 54.3866650000
216      15   5 -0.11319419879731164313 40.3516090000  7.1582500000 53.2099410000
217      15   5 -0.11319419879731164313 40.6403690000  6.9799040000 55.3637970000
218      15   5 -0.11319419879731164313 40.9814970000  8.8876610000 54.3727690000
219      15   2  0.72161301733286176141 36.3040900000  6.4673780000 55.1053830000
220      15   3 -0.37495578351609482048 35.8419810000  5.2774390000 54.3797170000
221      15   3 -0.37495578351609482048 35.3880310000  7.5996860000 55.3043010000
222      15   4  0.24761230986911919594 36.5823900000  5.7952560000 56.8515660000
223      15   5 -0.11319419879731164313 37.4389530000  4.7549100000 56.8451710000
224      15   5 -0.11319419879731164313 37.0691570000  6.7322120000 57.6790630000
225      15   5 -0.11319419879731164313 35.4096470000  5.3578670000 57.3623030000
226      16   1 -0.46692607003891056783 43.0355670000 14.6625630000 14.5441820000
227      16   2  0.72161301733286176141 43.4106360000 13.4299330000 15.5316720000
228      16   3 -0.37495578351609482048 44.3607590000 12.4675300000 14.9552800000
229      16   3 -0.37495578351609482048 43.5338410000 13.7571280000 16.9613180000
230      16   4  0.24761230986911919594 41.7351780000 12.5730570000 15.3872570000
231      16   5 -0.11319419879731164313 41.4427150000 12.2299810000 14.1211240000
232      16   5 -0.11319419879731164313 40.7371120000 13.3382770000 15.8612650000
233      16   5 -0.11319419879731164313 41.7711290000 11.4408800000 16.1234360000
234      16   2  0.72161301733286176141 43.8888260000 16.0200330000 14.4443420000
235      16   3 -0.37495578351609482048 43.6725560000 16.6199100000 13.1216680000
236      16   3 -0.37495578351609482048 45.2461220000 15.9674680000 15.0063360000
237      16   4  0.24761230986911919594 42.9693180000 17.2146300000 15.5870570000
238      16   5 -0.11319419879731164313 41.6800100000 17.3498320000 15.2189980000
239      16   5 -0.11319419879731164313 42.9986120000 16.8098920000 16.8656920000
240      16   5 -0.11319419879731164313 43.5441090000 18.4365780000 15.5242540000
241      17   1 -0.46692607003891056783 54.7666770000 16.2767660000 13.9010910000
242      17   2  0.72161301733286176141 55.9744630000 16.7921780000 12.9467350000
243      17   3 -0.37495578351609482048 57.2558530000 16.1104840000 13.1802170000
244      17   3 -0.37495578351609482048 55.6090700000 17.1299540000 11.5616280000
245      17   4  0.24761230986911919594 56.1735700000 18.4627850000 13.8021160000
246      17   5 -0.11319419879731164313 56.4801950000 18.3380220000 15.1047070000
247      17   5 -0.11319419879731164313 55.0655680000 19.2162060000 13.6969050000
248      17   5 -0.11319419879731164313 57.1837100000 19.1302630000 13.2028100000
249      17   2  0.72161301733286176141 53.8224920000 15.0249810000 13.5513890000
250      17   3 -0.37495578351609482048 53.2849800000 14.4726530000 14.8012310000
251      17   3 -0.37495578351609482048 54.3218400000 14.1160160000 12.5096170000
252      17   4  0.24761230986911919594 52.2944670000 15.8187730000 12.7681990000
253      17   5 -0.11319419879731164313 51.7286130000 16.7163500000 13.5989980000
254      17   5 -0.11319419879731164313 52.5861640000 16.4414600000 11.6163500000
255      17   5 -0.11319419879731164313 51.3724380000 14.8660800000 12.5041450000
256      18   1 -0.46692607003891056783 41.2992760000 25.7214170000 22.7274920000
257      18   2  0.72161301733286176141 40.5071740000 26.7291610000 21.7313910000
258      18   3 -0.37495578351609482048 40.7555850000 28.1534660000 21.9975290000
259      18   3 -0.37495578351609482048 40.3847890000 26.2948180000 20.3305010000
260      18   4  0.24761230986911919594 38.8025520000 26.4072920000 22.4749730000
261      18   5 -0.11319419879731164313 38.7452220000 26.7225010000 23.7802250000
262      18   5 -0.11319419879731164313 38.4255020000 25.1253400000 22.3306930000
263      18   5 -0.11319419879731164313 37.9023080000 27.1768260000 21.8250090000
264      18   2  0.72161301733286176141 42.7968000000 25.2011170000 22.4677750000
265      18   3 -0.37495578351609482048 43.4034990000 24.8403700000 23.7553580000
266      18   3 -0.37495578351609482048 43.5786920000 25.9623010000 21.4828390000
267      18   4  0.24761230986911919594 42.5512600000 23.5141160000 21.6479620000
268      18   5 -0.11319419879731164313 41.8137830000 22.6953120000 22.4236870000
269      18   5 -0.11319419879731164313 41.9452020000 23.6181760000 20.4557180000
270      18   5 -0.11319419879731164313 43.7520040000 22.9240890000 21.4541380000
271      19   1 -0.46692607003891056783 46.6158030000 28.7928650000  7.2553140000
272      19   2  0.72161301733286176141 47.4530540000 28.2284770000  5.9842250000
273      19   3 -0.37495578351609482048 47.0165100000 26.9040620000  5.5188920000
274      19   3 -0.37495578351609482048 47.8515460000 29.2231730000  4.9753100000
275      19   4  0.24761230986911919594 49.0343010000 27.8826590000  6.9549550000
276      19   5 -0.11319419879731164313 48.8403760000 27.0049900000  7.9541640000
277      19   5 -0.11319419879731164313 49.5618360000 29.0053760000  7.4722520000
278      19   5 -0.11319419879731164313 49.9448450000 27.3512110000  6.1102370000
279      19   2  0.72161301733286176141 45.2450010000 29.6206250000  7.1270260000
280      19   3 -0.37495578351609482048 44.4734900000 29.4552540000  8.3653770000
281      19   3 -0.37495578351609482048 44.5628120000 29.5346520000  5.8277650000
282      19   4  0.24761230986911919594 45.7983010000 31.4265230000  7.2316440000
283      19   5 -0.11319419879731164313 46.4777760000 31.6653740000  8.3706470000
284      19   5 -0.11319419879731164313 46.5801120000 31.7732900000  6.1981520000
285      19   5 -0.11319419879731164313 44.7148080000 32.2348890000  7.2231880000
286      20   1 -0.46692607003891056783 26.4715800000 37.7168570000 39.3066070000
287      20   2  0.72161301733286176141 25.2677590000 38.7648120000 39.0103010000
288      20   3 -0.37495578351609482048 25.4861480000 39.6101940000 37.8275850000
289      20   3 -0.37495578351609482048 23.9038650000 38.2794580000 39.2755380000
290      20   4  0.24761230986911919594 25.6570330000 39.8967290000 40.4695750000
291      20   5 -0.11319419879731164313 26.8977640000 40.4091460000 40.4036750000
292      20   5 -0.11319419879731164313 25.5212420000 39.2630350000 41.6470190000
293      20   5 -0.11319419879731164313 24.7838440000 40.9274400000 40.4536870000
294      20   2  0.72161301733286176141 26.5661360000 36.2541770000 38.6490610000
295      20   3 -0.37495578351609482048 27.9730790000 35.8345610000 38.6261920000
296      20   3 -0.37495578351609482048 25.7192330000 36.0250070000 37.4696160000
297      20   4  0.24761230986911919594 25.8253970000 35.1188890000 39.9684490000
298      20   5 -0.11319419879731164313 26.4812780000 35.2362230000 41.1398230000
299      20   5 -0.11319419879731164313 24.5284170000 35.3823640000 40.1875470000
300      20   5 -0.11319419879731164313 25.9266080000 33.8314250000 39.5688510000
301      21   1 -0.46692607003891056783 28.0785130000 44.8651020000 58.6165850000
302      21   2  0.72161301733286176141 28.4399020000 45.7564650000 57.3088930000
303      21   3 -0.37495578351609482048 29.8770430000 46.0139980000 57.1371830000
304      21   3 -0.37495578351609482048 27.6305390000 45.5031280000 56.1060310000
305      21   4  0.24761230986911919594 27.7573430000 47.3729820000 58.0040430000
306      21   5 -0.11319419879731164313 28.3714350000 47.7412760000 59.1413990000
307      21   5 -0.11319419879731164313 26.4360250000 47.3004790000 58.2390840000
308      21   5 -0.11319419879731164313 27.9602350000 48.3482080000 57.0914390000
309      21   2  0.72161301733286176141 28.0627740000 43.2587480000 58.6275090000
310      21   3 -0.37495578351609482048 28.2962500000 42.7915280000 59.9998370000
311      21   3 -0.37495578351609482048 28.7537180000 42.6027500000 57.5080810000
312      21   4  0.24761230986911919594 26.2418370000 42.8246730000 58.3552510000
313      21   5 -0.11319419879731164313 25.4583540000 43.3864740000 59.2968430000
314      21   5 -0.11319419879731164313 25.8037030000 43.2267280000 57.1527660000
315      21   5 -0.11319419879731164313 26.0778760000 41.4849540000 58.4311170000
316      22   1 -0.46692607003891056783 37.0037280000 55.7654830000 56.4571050000
317      22   2  0.72161301733286176141 35.9430080000 55.3381480000 57.6092540000
318      22   3 -0.37495578351609482048 35.2539480000 56.4729110000 58.2406750000
319      22   3 -0.37495578351609482048 35.1730630000 54.1088770000 57.3598560000
320      22   4  0.24761230986911919594 37.2504240000 54.8272360000 58.8709520000
321      22   5 -0.11319419879731164313 38.0752430000 55.8386090000 59.1920860000
322      22   5 -0.11319419879731164313 37.9932480000 53.7955330000 58.4348510000
323      22   5 -0.11319419879731164313 36.6216550000 54.4335650000 60.0000000000
324      22   2  0.72161301733286176141 36.6073600000 55.9954080000 54.9173750000
325      22   3 -0.37495578351609482048 37.5824300000 56.9086030000 54.3079460000
326      22   3 -0.37495578351609482048 35.1740830000 56.1730520000 54.6434890000
327      22   4  0.24761230986911919594 37.0267760000 54.3450890000 54.0934270000
328      22   5 -0.11319419879731164313 38.3202180000 54.0177790000 54.2830050000
329      22   5 -0.11319419879731164313 36.2689590000 53.3423560000 54.5622790000
330      22   5 -0.11319419879731164313 36.8178450000 54.4364720000 52.7609550000