Generated by pymatgen.io.lammps.data.LammpsData

15482  atoms
14577  bonds
24932  angles
21639  dihedrals

   15  atom types
   14  bond types
   20  angle types
   17  dihedral types

-0.2500000000 60.2500000000  xlo xhi
-0.2500000000 60.2500000000  ylo yhi
-0.2500000000 60.2500000000  zlo zhi

Masses

1   14.01000
2   32.06000
3   16.00000
4   12.01000
5   19.00000
6   16.00000
7   12.01000
8   12.01000
9    1.00800
10  32.06500
11  12.01070
12   1.00794
13  32.06000
14  32.06000
15   6.94100

Pair Coeffs

1       0.17  3.249999
2       0.25  3.549340
3       0.21  2.959566
4      0.066  3.499450
5      0.053  2.948875
6       0.14  2.900000
7      0.066  3.500000
8      0.066  3.500000
9       0.03  2.500000
10    0.3550  3.600000
11    0.0660  3.500000
12    0.0300  2.500000
13  0.344001  3.590322
14  0.344001  3.590322
15  0.165057  1.506000

Bond Coeffs

1   441.80  1.323
2   235.40  1.818
3   637.10  1.442
4   372.00  1.570
5   320.00  1.410
6   320.00  1.380
7   268.00  1.529
8   340.00  1.090
9   340.00  1.090
10  166.00  2.038
11  222.00  1.810
12  340.00  1.090
13  157.87  2.133
14  154.36  2.117


Angle Coeffs

1    93.30  107.10
2    82.90  111.80
3   104.00  102.60
4   115.80  118.50
5    94.30  113.60
6    97.50  100.20
7    80.20  125.60
8    60.00  109.50
9    50.00  109.50
10   35.00  109.50
11   37.50  110.70
12   33.00  107.80
13   92.60  111.55
14   35.00  109.50
15   33.00  109.50
16   68.00  103.70
17   35.00  109.50
18   33.00  107.80
19   73.56  112.74
20   73.56  112.74


Dihedral Coeffs

1 1 0.173400000 3 0.000000000
2 1 0.158000000 3 0.000000000
3 1 -0.001800000 3 0.000000000
4 3 3.916460000 1 0.000000000 -1.245000000 2 180.000000000 -0.381800000 3 0.000000000
5 3 0.062500000 1 0.000000000 -0.011000000 2 180.000000000 0.280500000 3 0.000000000
6 3 0.062500000 1 0.000000000 -0.011000000 2 180.000000000 0.280500000 3 0.000000000
7 1 0.370500000 3 0.000000000
8 1 0.370500000 3 0.000000000
9 3 -0.533500000 1 0.000000000 -0.783500000 2 180.000000000 0.337500000 3 0.000000000
10 1 0.370500000 3 0.000000000
11 3 1.119000000 1 0.000000000 -1.163500000 2 180.000000000 -0.341500000 3 0.000000000
12 1 0.234000000 3 0.000000000
13 1 0.150000000 3 0.000000000
14 2 -3.497000000 2 180.000000000 0.747500000 3 0.000000000
15 1 0.240000000 3 0.000000000
16 4 5.431700000 1 0.000000000 -3.590000000 2 180.000000000 1.055600000 3 0.000000000 0.058320000 4 180.000000000
17 4 5.431700000 1 0.000000000 -3.590000000 2 180.000000000 1.055600000 3 0.000000000 0.058320000 4 180.000000000


Atoms

1         1   1 -0.45220966084275443508 20.4166090000 56.3028640000 21.3154130000
2         1   2  0.69886947584789327337 20.0726500000 55.0094520000 20.3967370000
3         1   3 -0.36313806097978768017 19.0226930000 54.1424440000 20.9508770000
4         1   3 -0.36313806097978768017 20.1032350000 55.2202630000 18.9404580000
5         1   4  0.23980815347721823327 21.6793350000 54.0937500000 20.7739690000
6         1   5 -0.10962658444672834790 21.8317040000 53.8457940000 22.0860780000
7         1   5 -0.10962658444672834790 22.7568370000 54.7709540000 20.3418030000
8         1   5 -0.10962658444672834790 21.6539020000 52.9063400000 20.1301640000
9         1   2  0.69886947584789327337 19.6304200000 57.7006970000 21.2220830000
10        1   3 -0.36313806097978768017 19.7513440000 58.3995660000 22.5077930000
11        1   3 -0.36313806097978768017 18.3317800000 57.6617120000 20.5344280000
12        1   4  0.23980815347721823327 20.7159770000 58.7525170000 20.0847200000
13        1   5 -0.10962658444672834790 21.9698090000 58.8604690000 20.5667110000
14        1   5 -0.10962658444672834790 20.7870160000 58.2432490000 18.8456960000
15        1   5 -0.10962658444672834790 20.2029870000 59.9998790000 19.9929940000
16        2   1 -0.45220966084275443508 48.4461690000 40.6550730000  6.1316910000
17        2   2  0.69886947584789327337 48.7948930000 40.7374270000  4.5484030000
18        2   3 -0.36313806097978768017 49.7299030000 41.8156000000  4.1955840000
19        2   3 -0.36313806097978768017 48.9180640000 39.4518480000  3.8425410000
20        2   4  0.23980815347721823327 47.1048860000 41.3991420000  4.0304670000
21        2   5 -0.10962658444672834790 46.8115260000 42.5714260000  4.6187000000
22        2   5 -0.10962658444672834790 46.1188140000 40.5279680000  4.3045090000
23        2   5 -0.10962658444672834790 47.1173980000 41.5998610000  2.6945650000
24        2   2  0.69886947584789327337 49.3241440000 39.8366810000  7.1994630000
25        2   3 -0.36313806097978768017 49.1241810000 40.4263150000  8.5292890000
26        2   3 -0.36313806097978768017 50.6779400000 39.4631280000  6.7652410000
27        2   4  0.23980815347721823327 48.4215870000 38.1810310000  7.3496970000
28        2   5 -0.10962658444672834790 47.1364550000 38.3552680000  7.7159470000
29        2   5 -0.10962658444672834790 48.4383030000 37.4932180000  6.1980830000
30        2   5 -0.10962658444672834790 49.0185470000 37.4223780000  8.2960420000
31        3   1 -0.45220966084275443508 24.3123920000 45.1469530000  4.3999620000
32        3   2  0.69886947584789327337 23.5952080000 46.5780270000  4.6698950000
33        3   3 -0.36313806097978768017 22.8378570000 46.6413510000  5.9283030000
34        3   3 -0.36313806097978768017 24.3479740000 47.7712890000  4.2508550000
35        3   4  0.23980815347721823327 22.2721670000 46.3649600000  3.3408300000
36        3   5 -0.10962658444672834790 21.5020790000 45.2841400000  3.5532450000
37        3   5 -0.10962658444672834790 22.8061350000 46.2709180000  2.1110270000
38        3   5 -0.10962658444672834790 21.4707840000 47.4523930000  3.3596260000
39        3   2  0.69886947584789327337 25.7715670000 44.7600870000  4.9494030000
40        3   3 -0.36313806097978768017 25.8638110000 43.2989730000  5.0622100000
41        3   3 -0.36313806097978768017 26.2958280000 45.6078300000  6.0298370000
42        3   4  0.23980815347721823327 26.9147770000 45.1272930000  3.4876970000
43        3   5 -0.10962658444672834790 26.5427460000 44.4395340000  2.3901350000
44        3   5 -0.10962658444672834790 26.9306660000 46.4323440000  3.1775850000
45        3   5 -0.10962658444672834790 28.1781960000 44.7573170000  3.7949060000
46        4   1 -0.45220966084275443508 26.0154710000 53.4921920000 56.5560670000
47        4   2  0.69886947584789327337 24.7424990000 53.4378200000 55.5501960000
48        4   3 -0.36313806097978768017 24.0830640000 52.1254010000 55.4878960000
49        4   3 -0.36313806097978768017 23.8984790000 54.6426790000 55.5047040000
50        4   4  0.23980815347721823327 25.7662200000 53.5197810000 53.9666780000
51        4   5 -0.10962658444672834790 26.6295000000 52.4951120000 53.8611810000
52        4   5 -0.10962658444672834790 26.4574640000 54.6687080000 53.8743160000
53        4   5 -0.10962658444672834790 24.9243170000 53.4599340000 52.9118340000
54        4   2  0.69886947584789327337 25.9012370000 53.8089010000 58.1268590000
55        4   3 -0.36313806097978768017 27.0529730000 53.2130660000 58.8157530000
56        4   3 -0.36313806097978768017 24.5583240000 53.6815890000 58.7110070000
57        4   4  0.23980815347721823327 26.2732560000 55.6601020000 58.2409220000
58        4   5 -0.10962658444672834790 27.4769630000 55.9514020000 57.7096050000
59        4   5 -0.10962658444672834790 25.3481150000 56.3984640000 57.6096410000
60        4   5 -0.10962658444672834790 26.2946330000 56.0401450000 59.5380710000
61        5   1 -0.45220966084275443508 54.7634970000 29.7909810000 31.7318470000
62        5   2  0.69886947584789327337 54.4705860000 28.8343820000 30.4534450000
63        5   3 -0.36313806097978768017 54.1546960000 27.4425420000 30.8058320000
64        5   3 -0.36313806097978768017 53.7401040000 29.4510360000 29.3344010000
65        5   4  0.23980815347721823327 56.2635370000 28.7705000000 29.8673570000
66        5   5 -0.10962658444672834790 57.0880330000 28.2565830000 30.7960240000
67        5   5 -0.10962658444672834790 56.7214520000 29.9849130000 29.5182220000
68        5   5 -0.10962658444672834790 56.3265980000 27.9772540000 28.7756330000
69        5   2  0.69886947584789327337 53.6192550000 30.5715280000 32.5456020000
70        5   3 -0.36313806097978768017 54.0965570000 30.8236090000 33.9111530000
71        5   3 -0.36313806097978768017 52.2438260000 30.0992410000 32.3311410000
72        5   4  0.23980815347721823327 53.6289660000 32.3039340000 31.7859770000
73        5   5 -0.10962658444672834790 54.8481950000 32.8710120000 31.8752260000
74        5   5 -0.10962658444672834790 53.2690660000 32.2881070000 30.4937690000
75        5   5 -0.10962658444672834790 52.7583950000 33.0963300000 32.4505830000
76        6   1 -0.45220966084275443508 45.7429150000 43.4539280000 57.6797770000
77        6   2  0.69886947584789327337 47.1710830000 43.4061640000 58.4500010000
78        6   3 -0.36313806097978768017 47.9787870000 44.6242580000 58.2917500000
79        6   3 -0.36313806097978768017 47.1819890000 42.7298440000 59.7571340000
80        6   4  0.23980815347721823327 47.9652440000 42.1648340000 57.2707400000
81        6   5 -0.10962658444672834790 48.0067480000 42.6149370000 56.0050330000
82        6   5 -0.10962658444672834790 47.3256980000 40.9827720000 57.2803750000
83        6   5 -0.10962658444672834790 49.2365290000 41.9483690000 57.6733000000
84        6   2  0.69886947584789327337 44.4022080000 44.0662240000 58.3187920000
85        6   3 -0.36313806097978768017 43.5133400000 44.4977360000 57.2326050000
86        6   3 -0.36313806097978768017 44.5879080000 44.9300210000 59.4936210000
87        6   4  0.23980815347721823327 43.4989210000 42.5525910000 59.0053360000
88        6   5 -0.10962658444672834790 43.2776730000 41.6358970000 58.0426400000
89        6   5 -0.10962658444672834790 44.1870280000 41.9623670000 59.9941370000
90        6   5 -0.10962658444672834790 42.2975370000 42.9260870000 59.4999700000
91        7   1 -0.45220966084275443508 56.5915620000 13.4517560000 20.8432820000
92        7   2  0.69886947584789327337 57.3716500000 13.1822830000 22.2411500000
93        7   3 -0.36313806097978768017 57.1815680000 14.2374020000 23.2470200000
94        7   3 -0.36313806097978768017 57.4184100000 11.7846800000 22.7001130000
95        7   4  0.23980815347721823327 59.0958190000 13.5076210000 21.5457040000
96        7   5 -0.10962658444672834790 59.2204460000 14.7486300000 21.0450100000
97        7   5 -0.10962658444672834790 59.4243100000 12.6270620000 20.5849280000
98        7   5 -0.10962658444672834790 59.9912940000 13.3757550000 22.5486060000
99        7   2  0.69886947584789327337 55.0679800000 13.0207530000 20.5718450000
100       7   3 -0.36313806097978768017 54.5068150000 13.8919940000 19.5315930000
101       7   3 -0.36313806097978768017 54.2688880000 12.7033300000 21.7641320000
102       7   4  0.23980815347721823327 55.2224180000 11.3633160000 19.6732870000
103       7   5 -0.10962658444672834790 55.9661310000 11.4796340000 18.5555110000
104       7   5 -0.10962658444672834790 55.7787700000 10.4209410000 20.4491630000
105       7   5 -0.10962658444672834790 53.9957920000 10.9293270000 19.3065060000
106       8   1 -0.45220966084275443508  1.9882160000 12.8508310000 41.5512760000
107       8   2  0.69886947584789327337  1.1875850000 13.5104620000 42.7999020000
108       8   3 -0.36313806097978768017  1.1191010000 14.9784230000 42.7601180000
109       8   3 -0.36313806097978768017  0.0074410000 12.7722430000 43.2778310000
110       8   4  0.23980815347721823327  2.5242910000 13.1415770000 44.0802900000
111       8   5 -0.10962658444672834790  3.6983770000 13.7208930000 43.7765740000
112       8   5 -0.10962658444672834790  2.7277830000 11.8212820000 44.2279160000
113       8   5 -0.10962658444672834790  2.1189030000 13.6314400000 45.2722510000
114       8   2  0.69886947584789327337  1.3047070000 12.4823310000 40.1449450000
115       8   3 -0.36313806097978768017  2.3364910000 12.4882360000 39.1002080000
116       8   3 -0.36313806097978768017  0.0000000000 13.1066450000 39.8826010000
117       8   4  0.23980815347721823327  0.9032230000 10.6410200000 40.3084760000
118       8   5 -0.10962658444672834790  2.0084830000  9.9214770000 40.5854610000
119       8   5 -0.10962658444672834790  0.0000030000 10.4072620000 41.2723910000
120       8   5 -0.10962658444672834790  0.3959770000 10.1813350000 39.1427670000
121       9   1 -0.45220966084275443508 11.8090690000 55.6328960000 45.9870180000
122       9   2  0.69886947584789327337 13.3407090000 56.1508070000 45.8419780000
123       9   3 -0.36313806097978768017 14.3046010000 55.0891300000 45.5180350000
124       9   3 -0.36313806097978768017 13.5238480000 57.4704240000 45.2165220000
125       9   4  0.23980815347721823327 13.5956180000 56.4639380000 47.6856750000
126       9   5 -0.10962658444672834790 13.4295460000 55.3518640000 48.4219080000
127       9   5 -0.10962658444672834790 12.7650140000 57.4111910000 48.1538520000
128       9   5 -0.10962658444672834790 14.8614300000 56.8972180000 47.8729320000
129       9   2  0.69886947584789327337 10.7901470000 55.4972430000 44.7524590000
130       9   3 -0.36313806097978768017  9.7731890000 54.4916690000 45.0851880000
131       9   3 -0.36313806097978768017 11.3991430000 55.5011500000 43.4145640000
132       9   4  0.23980815347721823327  9.8006070000 57.1085300000 44.8065060000
133       9   5 -0.10962658444672834790  9.1963720000 57.2724000000 45.9998660000
134       9   5 -0.10962658444672834790 10.5736860000 58.1809510000 44.5788120000
135       9   5 -0.10962658444672834790  8.8367880000 57.0817940000 43.8589700000
136      10   1 -0.45220966084275443508 33.3280460000 32.8051080000  8.5410330000
137      10   2  0.69886947584789327337 32.4558560000 34.0765870000  9.0487900000
138      10   3 -0.36313806097978768017 32.4478120000 35.2103750000  8.1130340000
139      10   3 -0.36313806097978768017 31.2133610000 33.7644340000  9.7732830000
140      10   4  0.23980815347721823327 33.6700060000 34.5951210000 10.3975720000
141      10   5 -0.10962658444672834790 34.8862980000 34.8884500000  9.9067370000
142      10   5 -0.10962658444672834790 33.8095820000 33.6465980000 11.3394880000
143      10   5 -0.10962658444672834790 33.1894480000 35.7051600000 10.9991980000
144      10   2  0.69886947584789327337 32.7459920000 31.6391590000  7.6016080000
145      10   3 -0.36313806097978768017 33.8578540000 31.0226590000  6.8669110000
146      10   3 -0.36313806097978768017 31.4918050000 31.9470590000  6.8994210000
147      10   4  0.23980815347721823327 32.2615090000 30.2775580000  8.8221310000
148      10   5 -0.10962658444672834790 33.3121720000 29.8996900000  9.5767060000
149      10   5 -0.10962658444672834790 31.2753510000 30.6669480000  9.6439880000
150      10   5 -0.10962658444672834790 31.8321360000 29.1903900000  8.1430220000
151      11   1 -0.45220966084275443508 16.5682300000 13.7840080000  6.6628070000
152      11   2  0.69886947584789327337 16.5209530000 14.7140870000  7.9924340000
153      11   3 -0.36313806097978768017 17.4361120000 14.2825760000  9.0589530000
154      11   3 -0.36313806097978768017 16.3454010000 16.1582080000  7.7692260000
155      11   4  0.23980815347721823327 14.8246860000 14.1162920000  8.5647700000
156      11   5 -0.10962658444672834790 14.7964560000 12.7909400000  8.7860690000
157      11   5 -0.10962658444672834790 13.8601150000 14.4196660000  7.6793610000
158      11   5 -0.10962658444672834790 14.5253170000 14.7350120000  9.7278010000
159      11   2  0.69886947584789327337 17.6025820000 14.0043600000  5.4535500000
160      11   3 -0.36313806097978768017 17.7933690000 12.7274850000  4.7540640000
161      11   3 -0.36313806097978768017 18.7661380000 14.8520250000  5.7509630000
162      11   4  0.23980815347721823327 16.6147970000 15.0131680000  4.1946050000
163      11   5 -0.10962658444672834790 15.4820780000 14.3765080000  3.8372910000
164      11   5 -0.10962658444672834790 16.2821590000 16.2227880000  4.6697400000
165      11   5 -0.10962658444672834790 17.3536790000 15.1939850000  3.0770870000
166      12   1 -0.45220966084275443508 12.4881580000 44.2189250000  7.9798410000
167      12   2  0.69886947584789327337 12.6842980000 43.1881100000  9.2184440000
168      12   3 -0.36313806097978768017 12.6116440000 43.8215630000 10.5430730000
169      12   3 -0.36313806097978768017 12.0881920000 41.8526740000  9.0529310000
170      12   4  0.23980815347721823327 14.5302970000 42.9187050000  8.9321620000
171      12   5 -0.10962658444672834790 15.2335810000 44.0610170000  9.0148920000
172      12   5 -0.10962658444672834790 14.7762140000 42.3541440000  7.7375170000
173      12   5 -0.10962658444672834790 14.9912650000 42.0806560000  9.8862380000
174      12   2  0.69886947584789327337 11.0573300000 44.6281610000  7.3748620000
175      12   3 -0.36313806097978768017 11.1717620000 45.9452390000  6.7358760000
176      12   3 -0.36313806097978768017  9.8934510000 44.3287850000  8.2213940000
177      12   4  0.23980815347721823327 10.8493580000 43.4737430000  5.8908070000
178      12   5 -0.10962658444672834790 11.8699390000 43.6058650000  5.0207380000
179      12   5 -0.10962658444672834790 10.7801920000 42.1863120000  6.2613720000
180      12   5 -0.10962658444672834790  9.7081040000 43.7794080000  5.2338490000
181      13   1 -0.45220966084275443508 46.8081950000 34.5401150000 16.6560400000
182      13   2  0.69886947584789327337 46.2544370000 33.3791660000 17.6463640000
183      13   3 -0.36313806097978768017 45.1267230000 32.6113790000 17.0986900000
184      13   3 -0.36313806097978768017 47.2679630000 32.6594010000 18.4342900000
185      13   4  0.23980815347721823327 45.4553070000 34.5652670000 18.8779510000
186      13   5 -0.10962658444672834790 44.5130920000 35.3364620000 18.3089000000
187      13   5 -0.10962658444672834790 46.3615430000 35.3655420000 19.4650450000
188      13   5 -0.10962658444672834790 44.8609600000 33.8357840000 19.8473230000
189      13   2  0.69886947584789327337 47.9168310000 34.2928070000 15.5200360000
190      13   3 -0.36313806097978768017 47.7545170000 35.3066120000 14.4703000000
191      13   3 -0.36313806097978768017 48.1515580000 32.8904150000 15.1471390000
192      13   4  0.23980815347721823327 49.5341970000 34.8203640000 16.3471790000
193      13   5 -0.10962658444672834790 49.4694710000 36.0945560000 16.7811210000
194      13   5 -0.10962658444672834790 49.8425830000 34.0381220000 17.3924430000
195      13   5 -0.10962658444672834790 50.5472480000 34.7416720000 15.4555390000
196      14   1 -0.45220966084275443508 17.0262520000 11.0579920000 38.1487950000
197      14   2  0.69886947584789327337 18.4683850000 11.7100290000 38.5097510000
198      14   3 -0.36313806097978768017 18.4693750000 12.5226030000 39.7348650000
199      14   3 -0.36313806097978768017 19.6475110000 10.8754350000 38.2282530000
200      14   4  0.23980815347721823327 18.4433510000 12.9770590000 37.1110870000
201      14   5 -0.10962658444672834790 17.3943740000 13.8129930000 37.1958700000
202      14   5 -0.10962658444672834790 18.4221860000 12.3903050000 35.9020980000
203      14   5 -0.10962658444672834790 19.5694510000 13.7193100000 37.1887880000
204      14   2  0.69886947584789327337 16.5119150000  9.6496450000 38.7256480000
205      14   3 -0.36313806097978768017 15.0436100000  9.6409530000 38.7159250000
206      14   3 -0.36313806097978768017 17.2348620000  9.1335380000 39.8969010000
207      14   4  0.23980815347721823327 16.9341800000  8.4194760000 37.3520640000
208      14   5 -0.10962658444672834790 16.3631180000  8.7743950000 36.1841680000
209      14   5 -0.10962658444672834790 18.2575550000  8.3191390000 37.1566390000
210      14   5 -0.10962658444672834790 16.4681200000  7.1938240000 37.6807760000
211      15   1 -0.45220966084275443508  2.3987030000  9.6893980000 55.5371840000
212      15   2  0.69886947584789327337  3.9737300000  9.4972050000 55.1943410000
213      15   3 -0.36313806097978768017  4.2319530000  8.8994440000 53.8763180000
214      15   3 -0.36313806097978768017  4.8753660000 10.5616460000 55.6635370000
215      15   4  0.23980815347721823327  4.2463460000  8.0792430000 56.4097890000
216      15   5 -0.10962658444672834790  3.4641450000  7.0191400000 56.1439490000
217      15   5 -0.10962658444672834790  4.0299620000  8.4585810000 57.6808760000
218      15   5 -0.10962658444672834790  5.5324840000  7.6771970000 56.3134290000
219      15   2  0.69886947584789327337  1.5429240000 10.9819850000 55.1157540000
220      15   3 -0.36313806097978768017  0.1268640000 10.6042960000 55.0251160000
221      15   3 -0.36313806097978768017  2.1369680000 11.8333180000 54.0749850000
222      15   4  0.23980815347721823327  1.5751050000 12.0675740000 56.6645650000
223      15   5 -0.10962658444672834790  1.0840100000 11.4103120000 57.7336270000
224      15   5 -0.10962658444672834790  2.8158460000 12.4816440000 56.9623690000
225      15   5 -0.10962658444672834790  0.8071150000 13.1625680000 56.4679280000
226      16   1 -0.45220966084275443508 16.4702710000 35.5580230000  2.6511610000
227      16   2  0.69886947584789327337 17.6612920000 35.1864230000  3.6897040000
228      16   3 -0.36313806097978768017 18.8195210000 36.0892380000  3.6218000000
229      16   3 -0.36313806097978768017 17.2407230000 34.6934980000  5.0111700000
230      16   4  0.23980815347721823327 18.2228630000 33.6389290000  2.7665840000
231      16   5 -0.10962658444672834790 18.6157440000 33.9066240000  1.5094800000
232      16   5 -0.10962658444672834790 17.2584210000 32.7040080000  2.7201300000
233      16   5 -0.10962658444672834790 19.2776230000 33.1099820000  3.4244380000
234      16   2  0.69886947584789327337 15.2952520000 36.6044810000  2.9751920000
235      16   3 -0.36313806097978768017 14.7810150000 37.1464960000  1.7111230000
236      16   3 -0.36313806097978768017 15.5352930000 37.5075380000  4.1099720000
237      16   4  0.23980815347721823327 13.8666130000 35.5104990000  3.5587590000
238      16   5 -0.10962658444672834790 13.5409070000 34.5923090000  2.6276820000
239      16   5 -0.10962658444672834790 14.1606080000 34.8649210000  4.6973440000
240      16   5 -0.10962658444672834790 12.7730000000 36.2727960000  3.7832530000
241      17   1 -0.45220966084275443508 14.3472800000 23.0913520000  4.2709710000
242      17   2  0.69886947584789327337 15.8003750000 22.7814670000  3.6170030000
243      17   3 -0.36313806097978768017 16.3437210000 21.4597610000  3.9620400000
244      17   3 -0.36313806097978768017 16.0206910000 23.2891680000  2.2532480000
245      17   4  0.23980815347721823327 16.7503760000 23.9786300000  4.7245000000
246      17   5 -0.10962658444672834790 16.6280150000 23.6770120000  6.0284870000
247      17   5 -0.10962658444672834790 16.3557940000 25.2506750000  4.5439780000
248      17   5 -0.10962658444672834790 18.0610460000 23.9049540000  4.4054480000
249      17   2  0.69886947584789327337 12.9530910000 22.6724030000  3.5916630000
250      17   3 -0.36313806097978768017 11.9342320000 22.5429650000  4.6410740000
251      17   3 -0.36313806097978768017 13.0358040000 21.6600940000  2.5290040000
252      17   4  0.23980815347721823327 12.4052400000 24.2397240000  2.6851760000
253      17   5 -0.10962658444672834790 12.3106410000 25.2859620000  3.5292730000
254      17   5 -0.10962658444672834790 13.2527950000 24.5728450000  1.7001580000
255      17   5 -0.10962658444672834790 11.1855280000 24.0441370000  2.1360540000
256      18   1 -0.45220966084275443508 13.8636540000 50.8131760000 35.0637140000
257      18   2  0.69886947584789327337 13.6662180000 50.2010110000 36.5541710000
258      18   3 -0.36313806097978768017 12.4182410000 49.4444570000 36.7312550000
259      18   3 -0.36313806097978768017 14.8814900000 49.7024170000 37.2179810000
260      18   4  0.23980815347721823327 13.3248080000 51.8621710000 37.3825660000
261      18   5 -0.10962658444672834790 12.2496000000 52.4810240000 36.8655790000
262      18   5 -0.10962658444672834790 14.3770420000 52.6935850000 37.2934740000
263      18   5 -0.10962658444672834790 13.0834980000 51.6425690000 38.6935280000
264      18   2  0.69886947584789327337 14.5317230000 50.0054060000 33.8463670000
265      18   3 -0.36313806097978768017 14.0334830000 50.5579760000 32.5804630000
266      18   3 -0.36313806097978768017 14.6249680000 48.5484180000 34.0176760000
267      18   4  0.23980815347721823327 16.3335820000 50.5811600000 33.8592840000
268      18   5 -0.10962658444672834790 16.4205550000 51.9207420000 33.7408830000
269      18   5 -0.10962658444672834790 16.9688660000 50.2189580000 34.9839200000
270      18   5 -0.10962658444672834790 16.9931040000 50.0333260000 32.8141070000
271      19   1 -0.45220966084275443508 43.9518300000 37.1620750000 32.4950370000
272      19   2  0.69886947584789327337 43.3989330000 35.6395900000 32.6024370000
273      19   3 -0.36313806097978768017 42.5791790000 35.2171320000 31.4575730000
274      19   3 -0.36313806097978768017 44.3155850000 34.6562400000 33.2015170000
275      19   4  0.23980815347721823327 42.1438110000 36.0041270000 33.9640660000
276      19   5 -0.10962658444672834790 41.2363530000 36.9229130000 33.5916660000
277      19   5 -0.10962658444672834790 42.7367720000 36.4264580000 35.0938510000
278      19   5 -0.10962658444672834790 41.4810830000 34.8619340000 34.2491320000
279      19   2  0.69886947584789327337 45.3166200000 37.5675380000 31.7509330000
280      19   3 -0.36313806097978768017 45.2232800000 38.9678000000 31.3189090000
281      19   3 -0.36313806097978768017 45.8728950000 36.5596020000 30.8368890000
282      19   4  0.23980815347721823327 46.5834920000 37.6588760000 33.1527340000
283      19   5 -0.10962658444672834790 46.1985460000 38.5316340000 34.1046640000
284      19   5 -0.10962658444672834790 46.7770650000 36.4653360000 33.7337450000
285      19   5 -0.10962658444672834790 47.7712620000 38.0815570000 32.6648520000
286      20   1 -0.45220966084275443508 15.1525810000 47.5032220000  6.3383670000
287      20   2  0.69886947584789327337 15.4040210000 46.3282500000  5.2468500000
288      20   3 -0.36313806097978768017 16.1610130000 45.1797810000  5.7656600000
289      20   3 -0.36313806097978768017 14.3012350000 46.0669530000  4.3078540000
290      20   4  0.23980815347721823327 16.6664540000 47.2977970000  4.2327050000
291      20   5 -0.10962658444672834790 17.7415850000 47.6526310000  4.9569380000
292      20   5 -0.10962658444672834790 16.1324630000 48.4071940000  3.6937490000
293      20   5 -0.10962658444672834790 17.0926580000 46.5121020000  3.2197340000
294      20   2  0.69886947584789327337 13.9108090000 47.5265570000  7.3572880000
295      20   3 -0.36313806097978768017 14.2797000000 48.3201330000  8.5363750000
296      20   3 -0.36313806097978768017 13.1998580000 46.2517900000  7.5315590000
297      20   4  0.23980815347721823327 12.6450210000 48.6396450000  6.4987020000
298      20   5 -0.10962658444672834790 13.1611510000 49.8565440000  6.2363510000
299      20   5 -0.10962658444672834790 12.2126700000 48.1113230000  5.3439160000
300      20   5 -0.10962658444672834790 11.5730130000 48.8136340000  7.3036950000
301      21   1 -0.45220966084275443508 12.7802400000  5.0927610000 13.1847550000
302      21   2  0.69886947584789327337 13.8830350000  4.5399680000 12.1295530000
303      21   3 -0.36313806097978768017 15.2165310000  4.3288250000 12.7112650000
304      21   3 -0.36313806097978768017 13.3992350000  3.5730550000 11.1309830000
305      21   4  0.23980815347721823327 14.0425300000  6.1612920000 11.1766000000
306      21   5 -0.10962658444672834790 14.4490880000  7.1766840000 11.9576360000
307      21   5 -0.10962658444672834790 12.8865870000  6.5142050000 10.5886960000
308      21   5 -0.10962658444672834790 14.9649830000  5.9944170000 10.2038150000
309      21   2  0.69886947584789327337 11.8902090000  4.1441000000 14.1274260000
310      21   3 -0.36313806097978768017 11.4782270000  4.9058550000 15.3132130000
311      21   3 -0.36313806097978768017 12.3669320000  2.7619540000 14.2799410000
312      21   4  0.23980815347721823327 10.2648520000  3.9623690000 13.1768770000
313      21   5 -0.10962658444672834790  9.7074090000  5.1633190000 12.9258020000
314      21   5 -0.10962658444672834790 10.4349320000  3.3278990000 12.0072190000
315      21   5 -0.10962658444672834790  9.3850850000  3.2477770000 13.9136640000
316      22   1 -0.45220966084275443508 20.9129390000 39.4761400000 24.3046520000
317      22   2  0.69886947584789327337 20.5589430000 39.2359090000 22.7387120000
318      22   3 -0.36313806097978768017 19.1551250000 39.5028770000 22.3934530000
319      22   3 -0.36313806097978768017 21.5983430000 39.6222470000 21.7709750000
320      22   4  0.23980815347721823327 20.6680180000 37.3534560000 22.8207220000
321      22   5 -0.10962658444672834790 19.7953290000 36.8274680000 23.6971220000
322      22   5 -0.10962658444672834790 21.9027560000 36.9356340000 23.1481810000
323      22   5 -0.10962658444672834790 20.3757250000 36.8564130000 21.5990060000
324      22   2  0.69886947584789327337 21.3450110000 40.8974950000 24.9160490000
325      22   3 -0.36313806097978768017 21.0120800000 40.9196000000 26.3459990000
326      22   3 -0.36313806097978768017 21.0494520000 42.0712660000 24.0819260000
327      22   4  0.23980815347721823327 23.2349640000 40.8211070000 24.9404880000
328      22   5 -0.10962658444672834790 23.6732180000 39.7632270000 25.6510420000
329      22   5 -0.10962658444672834790 23.7505630000 40.7370860000 23.7049000000
330      22   5 -0.10962658444672834790 23.7273340000 41.9379440000 25.5216370000
331      23   1 -0.45220966084275443508 20.7311000000 45.1894990000 18.5475580000
332      23   2  0.69886947584789327337 19.1405890000 45.1353750000 18.2273480000
333      23   3 -0.36313806097978768017 18.5295200000 46.4529460000 17.9997880000
334      23   3 -0.36313806097978768017 18.6816570000 44.0048160000 17.4043400000