Generated by pymatgen.io.lammps.data.LammpsData

17462  atoms
16638  bonds
29378  angles
27582  dihedrals

   15  atom types
   14  bond types
   22  angle types
   20  dihedral types

-0.2500000000 60.2500000000  xlo xhi
-0.2500000000 60.2500000000  ylo yhi
-0.2500000000 60.2500000000  zlo zhi

Masses

1   15.99940
2   12.01070
3    1.00794
4   14.01000
5   32.06000
6   16.00000
7   12.01000
8   19.00000
9   16.00000
10  12.01000
11  12.01000
12   1.00800
13  32.06000
14  32.06000
15   6.94100

Pair Coeffs

1     0.1400  2.900000
2     0.0660  3.500000
3     0.0300  2.500000
4       0.17  3.249999
5       0.25  3.549340
6       0.21  2.959566
7      0.066  3.499450
8      0.053  2.948875
9       0.14  2.900000
10     0.066  3.500000
11     0.066  3.500000
12      0.03  2.500000
13  0.344001  3.590322
14  0.344001  3.590322
15  0.165057  1.506000

Bond Coeffs

1   320.00  1.410
2   268.00  1.529
3   340.00  1.090
4   441.80  1.323
5   235.40  1.818
6   637.10  1.442
7   372.00  1.570
8   320.00  1.410
9   320.00  1.380
10  268.00  1.529
11  340.00  1.090
12  340.00  1.090
13  157.87  2.133
14  154.36  2.117


Angle Coeffs

1    60.00  109.50
2    50.00  109.50
3    35.00  109.50
4    37.50  110.70
5    33.00  107.80
6    93.30  107.10
7    82.90  111.80
8   104.00  102.60
9   115.80  118.50
10   94.30  113.60
11   97.50  100.20
12   80.20  125.60
13   60.00  109.50
14   50.00  109.50
15   35.00  109.50
16   37.50  110.70
17   33.00  107.80
18   92.60  111.55
19   35.00  109.50
20   33.00  109.50
21   73.56  112.74
22   73.56  112.74


Dihedral Coeffs

1 3 0.062500000 1 0.000000000 -0.011000000 2 180.000000000 0.280500000 3 0.000000000
2 1 0.370500000 3 0.000000000
3 3 1.119000000 1 0.000000000 -1.163500000 2 180.000000000 -0.341500000 3 0.000000000
4 1 0.234000000 3 0.000000000
5 1 0.150000000 3 0.000000000
6 1 0.173400000 3 0.000000000
7 1 0.158000000 3 0.000000000
8 1 -0.001800000 3 0.000000000
9 3 3.916460000 1 0.000000000 -1.245000000 2 180.000000000 -0.381800000 3 0.000000000
10 3 0.062500000 1 0.000000000 -0.011000000 2 180.000000000 0.280500000 3 0.000000000
11 3 0.062500000 1 0.000000000 -0.011000000 2 180.000000000 0.280500000 3 0.000000000
12 1 0.370500000 3 0.000000000
13 1 0.370500000 3 0.000000000
14 3 -0.533500000 1 0.000000000 -0.783500000 2 180.000000000 0.337500000 3 0.000000000
15 1 0.370500000 3 0.000000000
16 3 1.119000000 1 0.000000000 -1.163500000 2 180.000000000 -0.341500000 3 0.000000000
17 1 0.234000000 3 0.000000000
18 1 0.150000000 3 0.000000000
19 4 5.431700000 1 0.000000000 -3.590000000 2 180.000000000 1.055600000 3 0.000000000 0.058320000 4 180.000000000
20 4 5.431700000 1 0.000000000 -3.590000000 2 180.000000000 1.055600000 3 0.000000000 0.058320000 4 180.000000000


Atoms

1         1   1 -0.40000000000000002220 14.4746390000 34.9797290000 16.2791110000
2         1   1 -0.40000000000000002220 13.5355340000 36.7413500000 19.2725240000
3         1   2  0.14000000000000001332 14.4544340000 36.0617540000 17.1958410000
4         1   2  0.14000000000000001332 13.5569060000 35.6601150000 18.3559060000
5         1   2  0.11000000000000000056 15.2840800000 35.2308820000 15.1441820000
6         1   2  0.11000000000000000056 12.7272600000 36.4909870000 20.4075650000
7         1   3  0.02999999999999999889 15.4686870000 36.2813880000 17.5673580000
8         1   3  0.02999999999999999889 14.0611620000 36.9739310000 16.7186430000
9         1   3  0.02999999999999999889 12.5431270000 35.4397180000 17.9848280000
10        1   3  0.02999999999999999889 13.9493780000 34.7477710000 18.8336820000
11        1   3  0.02999999999999999889 15.2289360000 34.3426300000 14.5099410000
12        1   3  0.02999999999999999889 14.9204110000 36.1032910000 14.5769610000
13        1   3  0.02999999999999999889 16.3339650000 35.4076120000 15.4296540000
14        1   3  0.02999999999999999889 11.6773750000 36.3142570000 20.1220930000
15        1   3  0.02999999999999999889 13.0901290000 35.6184110000 20.9753640000
16        1   3  0.02999999999999999889 12.7816040000 37.3790730000 21.0423840000
17        2   1 -0.40000000000000002220 19.0035020000 34.6533060000 28.2380160000
18        2   1 -0.40000000000000002220 19.0048580000 37.7010850000 26.3257420000
19        2   2  0.14000000000000001332 18.8285880000 36.0421360000 28.0096840000
20        2   2  0.14000000000000001332 19.1787590000 36.3129190000 26.5548030000
21        2   2  0.11000000000000000056 18.7055950000 34.2692800000 29.5684720000
22        2   2  0.11000000000000000056 19.3017520000 38.0857750000 24.9960160000
23        2   3  0.02999999999999999889 17.7868910000 36.3447020000 28.2053770000
24        2   3  0.02999999999999999889 19.4849780000 36.6343750000 28.6676010000
25        2   3  0.02999999999999999889 20.2197580000 36.0098670000 26.3585850000
26        2   3  0.02999999999999999889 18.5228730000 35.7208690000 25.8960430000
27        2   3  0.02999999999999999889 18.8720120000 33.1911990000 29.6343600000
28        2   3  0.02999999999999999889 19.3624210000 34.7812990000 30.2906280000
29        2   3  0.02999999999999999889 17.6569140000 34.4904040000 29.8260710000
30        2   3  0.02999999999999999889 20.3504340000 37.8646520000 24.7384170000
31        2   3  0.02999999999999999889 18.6454300000 37.5739440000 24.2730160000
32        2   3  0.02999999999999999889 19.1358390000 39.1640450000 24.9292840000
33        3   1 -0.40000000000000002220 30.6161760000 54.8514890000 33.8525700000
34        3   1 -0.40000000000000002220 28.2183140000 57.0567570000 32.3252190000
35        3   2  0.14000000000000001332 29.6583760000 55.2605770000 32.8898410000
36        3   2  0.14000000000000001332 29.1762810000 56.6472170000 33.2866190000
37        3   2  0.11000000000000000056 31.1470380000 53.5642180000 33.5928490000
38        3   2  0.11000000000000000056 27.6876190000 58.3435760000 32.5836120000
39        3   3  0.02999999999999999889 30.1035150000 55.2944170000 31.8820320000
40        3   3  0.02999999999999999889 28.8056740000 54.5630010000 32.8626950000
41        3   3  0.02999999999999999889 28.7319450000 56.6139650000 34.2943300000
42        3   3  0.02999999999999999889 30.0284860000 57.3455450000 33.3142000000
43        3   3  0.02999999999999999889 31.8670200000 53.3497930000 34.3865380000
44        3   3  0.02999999999999999889 30.3576210000 52.7949290000 33.6033070000
45        3   3  0.02999999999999999889 31.6610900000 53.5298520000 32.6183980000
46        3   3  0.02999999999999999889 27.1735660000 58.3779420000 33.5580620000
47        3   3  0.02999999999999999889 28.4765390000 59.1136170000 32.5735870000
48        3   3  0.02999999999999999889 26.9671410000 58.5587530000 31.7903560000
49        4   1 -0.40000000000000002220 20.7525810000 53.0913180000  2.4285960000
50        4   1 -0.40000000000000002220 20.6557830000 52.8328590000  6.0160150000
51        4   2  0.14000000000000001332 20.5372590000 52.4567880000  3.6786320000
52        4   2  0.14000000000000001332 20.8700780000 53.4664190000  4.7660590000
53        4   2  0.11000000000000000056 20.4743600000 52.2483840000  1.3247890000
54        4   2  0.11000000000000000056 20.9329770000 53.6748240000  7.1199020000
55        4   3  0.02999999999999999889 19.4887970000 52.1318700000  3.7792770000
56        4   3  0.02999999999999999889 21.1811020000 51.5687220000  3.7847180000
57        4   3  0.02999999999999999889 21.9178530000 53.7920570000  4.6653130000
58        4   3  0.02999999999999999889 20.2267280000 54.3550490000  4.6606350000
59        4   3  0.02999999999999999889 20.6713950000 52.8304180000  0.4210690000
60        4   3  0.02999999999999999889 21.1213130000 51.3558970000  1.3282460000
61        4   3  0.02999999999999999889 19.4216100000 51.9217330000  1.3230000000
62        4   3  0.02999999999999999889 21.9857270000 54.0014740000  7.1216900000
63        4   3  0.02999999999999999889 20.2865160000 54.5678740000  7.1171070000
64        4   3  0.02999999999999999889 20.7364350000 53.0933530000  8.0242840000
65        5   1 -0.40000000000000002220 33.6223400000  3.5686510000 35.7454450000
66        5   1 -0.40000000000000002220 33.1491410000  6.7753720000 34.1837890000
67        5   2  0.14000000000000001332 33.7629330000  4.5528970000 34.7339740000
68        5   2  0.14000000000000001332 33.0097490000  5.7911370000 35.1945140000
69        5   2  0.11000000000000000056 34.2858190000  2.3565040000 35.4342680000
70        5   2  0.11000000000000000056 32.4868630000  7.9875300000 34.4942190000
71        5   3  0.02999999999999999889 34.8245710000  4.8007910000 34.5713500000
72        5   3  0.02999999999999999889 33.3457000000  4.1966990000 33.7782080000
73        5   3  0.02999999999999999889 31.9486090000  5.5435600000 35.3579440000
74        5   3  0.02999999999999999889 33.4262580000  6.1480010000 36.1504650000
75        5   3  0.02999999999999999889 34.1147660000  1.6750260000 36.2713010000
76        5   3  0.02999999999999999889 33.8846660000  1.9046050000 34.5123370000
77        5   3  0.02999999999999999889 35.3699090000  2.5116120000 35.3090700000
78        5   3  0.02999999999999999889 31.4027720000  7.8324220000 34.6194170000
79        5   3  0.02999999999999999889 32.8872920000  8.4400950000 35.4163370000
80        5   3  0.02999999999999999889 32.6571920000  8.6696740000 33.6573720000
81        6   1 -0.40000000000000002220 50.7022280000 48.7053700000 10.3985780000
82        6   1 -0.40000000000000002220 50.0929730000 46.6488300000  7.5097710000
83        6   2  0.14000000000000001332 51.0462330000 47.9213760000  9.2678270000
84        6   2  0.14000000000000001332 49.7501350000 47.4331770000  8.6398050000
85        6   2  0.11000000000000000056 51.8322860000 49.2242170000 11.0768850000
86        6   2  0.11000000000000000056 48.9640820000 46.1303360000  6.8307470000
87        6   3  0.02999999999999999889 51.6150440000 48.5166050000  8.5349350000
88        6   3  0.02999999999999999889 51.6662810000 47.0589370000  9.5614050000
89        6   3  0.02999999999999999889 49.1808720000 46.8387770000  9.3723680000
90        6   3  0.02999999999999999889 49.1292650000 48.2950860000  8.3460210000
91        6   3  0.02999999999999999889 51.4575410000 49.8060910000 11.9226310000
92        6   3  0.02999999999999999889 52.4806450000 48.4159960000 11.4530530000
93        6   3  0.02999999999999999889 52.4289200000 49.8799950000 10.4219270000
94        6   3  0.02999999999999999889 48.3674490000 45.4745580000  7.4857050000
95        6   3  0.02999999999999999889 48.3149010000 46.9380270000  6.4543740000
96        6   3  0.02999999999999999889 49.3380050000 45.5479320000  5.9847960000
97        7   1 -0.40000000000000002220  1.5688720000 13.3003340000 34.8687220000
98        7   1 -0.40000000000000002220  3.4346460000 15.8979450000 36.5170710000
99        7   2  0.14000000000000001332  2.6827080000 13.8784810000 35.5295520000
100       7   2  0.14000000000000001332  2.3216050000 15.3189560000 35.8570530000
101       7   2  0.11000000000000000056  1.7803920000 11.9469250000 34.5083360000
102       7   2  0.11000000000000000056  3.2239210000 17.2505120000 36.8782680000
103       7   3  0.02999999999999999889  2.9163510000 13.3319940000 36.4578490000
104       7   3  0.02999999999999999889  3.5770110000 13.8553780000 34.8860160000
105       7   3  0.02999999999999999889  2.0872150000 15.8653750000 34.9294170000
106       7   3  0.02999999999999999889  1.4271550000 15.3430460000 36.5005240000
107       7   3  0.02999999999999999889  0.8701520000 11.6031110000 34.0107900000
108       7   3  0.02999999999999999889  2.6317870000 11.8443660000 33.8157320000
109       7   3  0.02999999999999999889  1.9681400000 11.3189640000 35.3945650000
110       7   3  0.02999999999999999889  3.0361730000 17.8784730000 35.9920390000
111       7   3  0.02999999999999999889  2.3723790000 17.3540580000 37.5708080000
112       7   3  0.02999999999999999889  4.1340140000 17.5953130000 37.3757500000
113       8   1 -0.40000000000000002220 32.4806050000 44.9423580000 50.5721350000
114       8   1 -0.40000000000000002220 33.0752210000 46.3986700000 53.8080800000
115       8   2  0.14000000000000001332 33.2092000000 45.2169750000 51.7575950000
116       8   2  0.14000000000000001332 32.3474930000 46.1230490000 52.6231080000
117       8   2  0.11000000000000000056 33.1809910000 44.0994850000 49.6747160000
118       8   2  0.11000000000000000056 32.3757030000 47.2405380000 54.7059870000
119       8   3  0.02999999999999999889 33.4377140000 44.2868260000 52.3031030000
120       8   3  0.02999999999999999889 34.1623340000 45.7191870000 51.5257170000
121       8   3  0.02999999999999999889 32.1181900000 47.0526370000 52.0778490000
122       8   3  0.02999999999999999889 31.3939140000 45.6216390000 52.8553810000
123       8   3  0.02999999999999999889 32.5361990000 43.9538940000 48.8044610000
124       8   3  0.02999999999999999889 34.1288490000 44.5587880000 49.3496020000
125       8   3  0.02999999999999999889 33.4008580000 43.1202910000 50.1305920000
126       8   3  0.02999999999999999889 32.1558360000 48.2197320000 54.2501110000
127       8   3  0.02999999999999999889 31.4273990000 46.7820380000 55.0314970000
128       8   3  0.02999999999999999889 33.0200490000 47.3869330000 55.5766370000
129       9   1 -0.40000000000000002220 56.7543140000 40.1995120000 45.1138010000
130       9   1 -0.40000000000000002220 55.3153810000 37.2035470000 46.4919950000
131       9   2  0.14000000000000001332 56.4830890000 39.2315130000 46.1142990000
132       9   2  0.14000000000000001332 55.5876100000 38.1712970000 45.4924630000
133       9   2  0.11000000000000000056 57.5873260000 41.2498480000 45.5712080000
134       9   2  0.11000000000000000056 54.4833720000 36.1529620000 46.0355540000
135       9   3  0.02999999999999999889 57.4153780000 38.7675120000 46.4755650000
136       9   3  0.02999999999999999889 55.9738710000 39.6902280000 46.9772750000
137       9   3  0.02999999999999999889 54.6558870000 38.6348640000 45.1304970000
138       9   3  0.02999999999999999889 56.0960290000 37.7120820000 44.6291510000
139       9   3  0.02999999999999999889 57.7310690000 41.9325800000 44.7300710000
140       9   3  0.02999999999999999889 57.1204490000 41.7978530000 46.4059590000
141       9   3  0.02999999999999999889 58.5681340000 40.8708510000 45.9019090000
142       9   3  0.02999999999999999889 53.5025640000 36.5319590000 45.7048520000
143       9   3  0.02999999999999999889 54.9494510000 35.6044570000 45.2004670000
144       9   3  0.02999999999999999889 54.3388310000 35.4697300000 46.8763550000
145      10   1 -0.40000000000000002220 15.3948700000 23.7079170000 55.6415920000
146      10   1 -0.40000000000000002220 15.4322160000 25.5390370000 52.5446000000
147      10   2  0.14000000000000001332 15.0928470000 24.7809990000 54.7647460000
148      10   2  0.14000000000000001332 15.7330050000 24.4666220000 53.4216210000
149      10   2  0.11000000000000000056 14.8493020000 23.8814730000 56.9371880000
150      10   2  0.11000000000000000056 15.9765500000 25.3661480000 51.2491790000
151      10   3  0.02999999999999999889 14.0032760000 24.8935120000 54.6416620000
152      10   3  0.02999999999999999889 15.4918700000 25.7313880000 55.1546070000
153      10   3  0.02999999999999999889 16.8220920000 24.3532990000 53.5443750000
154      10   3  0.02999999999999999889 15.3346380000 23.5161460000 53.0310110000
155      10   3  0.02999999999999999889 15.1392280000 23.0072190000 57.5253360000
156      10   3  0.02999999999999999889 15.2445520000 24.7897940000 57.4207400000
157      10   3  0.02999999999999999889 13.7495200000 23.9481590000 56.9052610000
158      10   3  0.02999999999999999889 17.0763320000 25.2994630000 51.2811060000
159      10   3  0.02999999999999999889 15.5819560000 24.4577400000 50.7648780000
160      10   3  0.02999999999999999889 15.6872800000 26.2403150000 50.6602820000
161      11   1 -0.40000000000000002220 51.9195060000 55.8205600000 49.1001230000
162      11   1 -0.40000000000000002220 54.2856020000 56.5827950000 46.4989040000
163      11   2  0.14000000000000001332 52.3418350000 56.2097850000 47.8033100000
164      11   2  0.14000000000000001332 53.8624500000 56.1932170000 47.7946220000
165      11   2  0.11000000000000000056 50.5100930000 55.7951890000 49.2388580000
166      11   2  0.11000000000000000056 55.6941920000 56.6078120000 46.3590750000
167      11   3  0.02999999999999999889 51.9566600000 55.5149400000 47.0392390000
168      11   3  0.02999999999999999889 51.9785970000 57.2210450000 47.5586480000
169      11   3  0.02999999999999999889 54.2478700000 56.8871000000 48.5588200000
170      11   3  0.02999999999999999889 54.2266480000 55.1822160000 48.0393940000
171      11   3  0.02999999999999999889 50.2958900000 55.4860070000 50.2649280000
172      11   3  0.02999999999999999889 50.0714270000 56.7909180000 49.0622500000
173      11   3  0.02999999999999999889 50.0497010000 55.0772830000 48.5405480000
174      11   3  0.02999999999999999889 56.1545840000 57.3257190000 47.0573850000
175      11   3  0.02999999999999999889 56.1338170000 55.6123430000 46.5357920000
176      11   3  0.02999999999999999889 55.9093550000 56.9172540000 45.3331140000
177      12   1 -0.40000000000000002220 49.2866310000 28.6145380000 29.3039440000
178      12   1 -0.40000000000000002220 46.8663900000 27.1992850000 27.0488960000
179      12   2  0.14000000000000001332 48.0037930000 28.1805830000 28.8825290000
180      12   2  0.14000000000000001332 48.1483480000 27.6327300000 27.4712950000
181      12   2  0.11000000000000000056 49.2866620000 29.1499900000 30.6152900000
182      12   2  0.11000000000000000056 46.8654790000 26.6633230000 25.7385340000
183      12   3  0.02999999999999999889 47.6157160000 27.3941270000 29.5502540000
184      12   3  0.02999999999999999889 47.2853180000 29.0161840000 28.8863040000
185      12   3  0.02999999999999999889 48.5370050000 28.4183780000 26.8036680000
186      12   3  0.02999999999999999889 48.8668910000 26.7970560000 27.4665240000
187      12   3  0.02999999999999999889 50.3136410000 29.4505190000 30.8373100000
188      12   3  0.02999999999999999889 48.6281790000 30.0309220000 30.6891230000
189      12   3  0.02999999999999999889 48.9600640000 28.4015990000 31.3557160000
190      12   3  0.02999999999999999889 47.1920770000 27.4117150000 24.9981080000
191      12   3  0.02999999999999999889 47.5240290000 25.7823180000 25.6637060000
192      12   3  0.02999999999999999889 45.8385670000 26.3627210000 25.5155190000
193      13   1 -0.40000000000000002220 24.4708400000 21.7511950000 29.1897740000
194      13   1 -0.40000000000000002220 26.0857160000 19.8519320000 26.5954100000
195      13   2  0.14000000000000001332 24.8063570000 21.3972680000 27.8579540000
196      13   2  0.14000000000000001332 25.7492240000 20.2060660000 27.9262280000
197      13   2  0.11000000000000000056 23.5887570000 22.8570370000 29.2631200000
198      13   2  0.11000000000000000056 26.9668230000 18.7462970000 26.5210620000
199      13   3  0.02999999999999999889 23.9049730000 21.1273470000 27.2838270000
200      13   3  0.02999999999999999889 25.3013600000 22.2354330000 27.3413300000
201      13   3  0.02999999999999999889 26.6500570000 20.4752470000 28.5007380000
202      13   3  0.02999999999999999889 25.2550400000 19.3673340000 28.4429350000
203      13   3  0.02999999999999999889 23.3978530000 23.0432950000 30.3229120000
204      13   3  0.02999999999999999889 24.0363410000 23.7580230000 28.8125790000
205      13   3  0.02999999999999999889 22.6339840000 22.6448070000 28.7548360000
206      13   3  0.02999999999999999889 27.9215970000 18.9585270000 27.0293450000
207      13   3  0.02999999999999999889 26.5200590000 17.8447450000 26.9716860000
208      13   3  0.02999999999999999889 27.1585470000 18.5594720000 25.4613530000
209      14   1 -0.40000000000000002220  4.8767080000 54.3764010000  6.2204120000
210      14   1 -0.40000000000000002220  6.9656700000 51.4917000000  6.7307950000
211      14   2  0.14000000000000001332  5.1674900000 53.0228910000  6.5286940000
212      14   2  0.14000000000000001332  6.6740560000 52.8445540000  6.4234490000
213      14   2  0.11000000000000000056  3.4933310000 54.6738390000  6.2847080000
214      14   2  0.11000000000000000056  8.3482150000 51.1936060000  6.6674350000
215      14   3  0.02999999999999999889  4.8321570000 52.7709530000  7.5480340000
216      14   3  0.02999999999999999889  4.6614230000 52.3420710000  5.8252540000
217      14   3  0.02999999999999999889  7.0097650000 53.0970610000  5.4048420000
218      14   3  0.02999999999999999889  7.1810450000 53.5252210000  7.1265350000
219      14   3  0.02999999999999999889  3.3821320000 55.7312390000  6.0320540000
220      14   3  0.02999999999999999889  2.9186500000 54.0678390000  5.5652650000
221      14   3  0.02999999999999999889  3.0904420000 54.4985760000  7.2956240000
222      14   3  0.02999999999999999889  8.7511040000 51.3688690000  5.6565200000
223      14   3  0.02999999999999999889  8.9238180000 51.7994540000  7.3865230000
224      14   3  0.02999999999999999889  8.4603360000 50.1360530000  6.9197340000
225      15   1 -0.40000000000000002220 16.3246430000 46.9191120000 44.5304560000
226      15   1 -0.40000000000000002220 18.8076840000 45.6059850000 46.7790010000
227      15   2  0.14000000000000001332 16.8148090000 46.1495690000 45.6163300000
228      15   2  0.14000000000000001332 18.3166670000 46.3753410000 45.6942390000
229      15   2  0.11000000000000000056 14.9250990000 46.7947650000 44.3511480000
230      15   2  0.11000000000000000056 20.2063760000 45.7301450000 46.9594220000
231      15   3  0.02999999999999999889 16.3413820000 46.4584890000 46.5625920000
232      15   3  0.02999999999999999889 16.6062280000 45.0781600000 45.4645880000
233      15   3  0.02999999999999999889 18.7901940000 46.0673870000 44.7482170000
234      15   3  0.02999999999999999889 18.5262330000 47.4466850000 45.8458270000
235      15   3  0.02999999999999999889 14.6557480000 47.4216230000 43.4974530000
236      15   3  0.02999999999999999889 14.6388230000 45.7517480000 44.1384210000
237      15   3  0.02999999999999999889 14.3731120000 47.1382110000 45.2412830000
238      15   3  0.02999999999999999889 20.7583630000 45.3866990000 46.0692860000
239      15   3  0.02999999999999999889 20.4936390000 46.7730980000 47.1719950000
240      15   3  0.02999999999999999889 20.4767130000 45.1032230000 47.8129620000
241      16   1 -0.40000000000000002220  4.6333650000 33.9348000000 51.0371200000
242      16   1 -0.40000000000000002220  2.7599150000 35.2330010000 48.2531290000
243      16   2  0.14000000000000001332  4.0467680000 33.9160540000 49.7459450000
244      16   2  0.14000000000000001332  3.3471720000 35.2510140000 49.5432900000
245      16   2  0.11000000000000000056  5.3222580000 32.7372340000 51.3495260000
246      16   2  0.11000000000000000056  2.0716820000 36.4298340000 47.9397090000
247      16   3  0.02999999999999999889  4.8141680000 33.7748820000 48.9673940000
248      16   3  0.02999999999999999889  3.3166360000 33.0953300000 49.6578050000
249      16   3  0.02999999999999999889  2.5805090000 35.3928610000 50.3218320000
250      16   3  0.02999999999999999889  4.0766290000 36.0724750000 49.6314440000
251      16   3  0.02999999999999999889  5.7311460000 32.8574450000 52.3558350000
252      16   3  0.02999999999999999889  4.6435990000 31.8687050000 51.3364010000
253      16   3  0.02999999999999999889  6.1475960000 32.5515250000 50.6429040000
254      16   3  0.02999999999999999889  1.2463430000 36.6155430000 48.6463320000
255      16   3  0.02999999999999999889  2.7496650000 37.2991000000 47.9528480000
256      16   3  0.02999999999999999889  1.6621190000 36.3103600000 46.9334140000
257      17   1 -0.40000000000000002220 32.9534040000 11.3086300000 44.8768680000
258      17   1 -0.40000000000000002220 33.4147980000  7.8494530000 45.7526290000
259      17   2  0.14000000000000001332 32.6682370000 10.0894490000 45.5430950000
260      17   2  0.14000000000000001332 33.6994120000  9.0687060000 45.0877020000
261      17   2  0.11000000000000000056 32.0560250000 12.3496300000 45.2194550000
262      17   2  0.11000000000000000056 34.3116250000  6.8085250000 45.4113420000
263      17   3  0.02999999999999999889 32.7259980000 10.2159900000 46.6365420000
264      17   3  0.02999999999999999889 31.6556120000  9.7329970000 45.2941360000
265      17   3  0.02999999999999999889 33.6425230000  8.9425090000 43.9946060000
266      17   3  0.02999999999999999889 34.7125240000  9.4244590000 45.3361370000
267      17   3  0.02999999999999999889 32.3630930000 13.2341150000 44.6558130000
268      17   3  0.02999999999999999889 31.0191330000 12.0907830000 44.9493670000
269      17   3  0.02999999999999999889 32.0944500000 12.5757000000 46.2976020000
270      17   3  0.02999999999999999889 34.2731990000  6.5824560000 44.3331950000
271      17   3  0.02999999999999999889 35.3490030000  7.0666730000 45.6809070000
272      17   3  0.02999999999999999889 34.0050430000  5.9233410000 45.9744600000
273      18   1 -0.40000000000000002220  5.6722020000 26.0325860000  9.6036390000
274      18   1 -0.40000000000000002220  2.4357220000 26.6469000000 11.0505560000
275      18   2  0.14000000000000001332  4.6594780000 25.9645860000 10.5942690000
276      18   2  0.14000000000000001332  3.4483920000 26.7137420000 10.0607350000
277      18   2  0.11000000000000000056  6.8628210000 25.3653680000  9.9825630000
278      18   2  0.11000000000000000056  1.2450500000 27.3129600000 10.6724420000
279      18   3  0.02999999999999999889  4.3869940000 24.9179130000 10.8068740000
280      18   3  0.02999999999999999889  4.9987130000 26.4265270000 11.5355350000
281      18   3  0.02999999999999999889  3.7205710000 27.7598790000  9.8473440000
282      18   3  0.02999999999999999889  3.1085120000 26.2525250000  9.1192280000
283      18   3  0.02999999999999999889  7.5689910000 25.4786360000  9.1562520000
284      18   3  0.02999999999999999889  7.2982740000 25.8077110000 10.8935000000
285      18   3  0.02999999999999999889  6.6836130000 24.2925930000 10.1615170000
286      18   3  0.02999999999999999889  1.4242580000 28.3857350000 10.4934870000
287      18   3  0.02999999999999999889  0.8089500000 26.8713410000  9.7612620000
288      18   3  0.02999999999999999889  0.5382340000 27.2004160000 11.4985110000
289      19   1 -0.40000000000000002220  3.9264560000 38.3216010000 46.4005430000
290      19   1 -0.40000000000000002220  4.5220260000 35.8024500000 43.9015580000
291      19   2  0.14000000000000001332  4.6169360000 37.6865760000 45.3367940000
292      19   2  0.14000000000000001332  3.8322490000 36.4382950000 44.9643950000
293      19   2  0.11000000000000000056  4.5613600000 39.5082470000 46.8422480000
294      19   2  0.11000000000000000056  3.8878240000 34.6166240000 43.4589400000
295      19   3  0.02999999999999999889  4.6926970000 38.3542790000 44.4630610000
296      19   3  0.02999999999999999889  5.6383490000 37.4075710000 45.6422760000
297      19   3  0.02999999999999999889  3.7556190000 35.7709350000 45.8377670000
298      19   3  0.02999999999999999889  2.8104760000 36.7163680000 44.6588920000
299      19   3  0.02999999999999999889  3.9528660000 39.9122090000 47.6551720000
300      19   3  0.02999999999999999889  5.5772300000 39.3038590000 47.2181830000
301      19   3  0.02999999999999999889  4.6272480000 40.2544910000 46.0336900000
302      19   3  0.02999999999999999889  3.8219370000 33.8703810000 44.2674980000
303      19   3  0.02999999999999999889  2.8715950000 34.8200790000 43.0829860000
304      19   3  0.02999999999999999889  4.4959590000 34.2117300000 42.6459970000
305      20   1 -0.40000000000000002220 12.7928740000 16.6976770000 47.2868070000
306      20   1 -0.40000000000000002220 15.0344700000 14.7205210000 49.2897680000
307      20   2  0.14000000000000001332 13.1597210000 15.6710570000 48.1940310000
308      20   2  0.14000000000000001332 14.6666940000 15.7467880000 48.3835500000
309      20   2  0.11000000000000000056 11.4012280000 16.7340570000 47.0254010000
310      20   2  0.11000000000000000056 16.4251870000 14.6837880000 49.5521810000
311      20   3  0.02999999999999999889 12.6543450000 15.8047450000 49.1644420000
312      20   3  0.02999999999999999889 12.8829480000 14.6801510000 47.7991250000
313      20   3  0.02999999999999999889 15.1722270000 15.6139780000 47.4135920000
314      20   3  0.02999999999999999889 14.9444530000 16.7375820000 48.7783330000
315      20   3  0.02999999999999999889 11.2299050000 17.5526260000 46.3219170000
316      20   3  0.02999999999999999889 11.0528260000 15.7906270000 46.5741260000
317      20   3  0.02999999999999999889 10.8235200000 16.9201980000 47.9455040000
318      20   3  0.02999999999999999889 17.0028960000 14.4976470000 48.6320770000
319      20   3  0.02999999999999999889 16.7745750000 15.6271060000 50.0033320000
320      20   3  0.02999999999999999889 16.5974960000 13.8651060000 50.2555410000
321      21   1 -0.40000000000000002220  9.9449880000 37.8833820000 35.0210960000
322      21   1 -0.40000000000000002220 11.7890530000 40.9684850000 34.8558310000
323      21   2  0.14000000000000001332 10.4456050000 39.0653080000 34.4177600000
324      21   2  0.14000000000000001332 11.2887100000 39.7865250000 35.4577800000
325      21   2  0.11000000000000000056  9.1373360000 37.1151420000 34.1471150000
326      21   2  0.11000000000000000056 12.5969790000 41.7366920000 35.7284250000
327      21   3  0.02999999999999999889 11.0636720000 38.8258410000 33.5370660000
328      21   3  0.02999999999999999889  9.6210780000 39.7180670000 34.0883520000
329      21   3  0.02999999999999999889 10.6714180000 40.0253830000 36.3386420000
330      21   3  0.02999999999999999889 12.1135260000 39.1343440000 35.7879530000
331      21   3  0.02999999999999999889  8.8073880000 36.2365500000 34.7070320000
332      21   3  0.02999999999999999889  8.2540160000 37.6837310000 33.8131320000