Generated by pymatgen.io.lammps.data.LammpsData

16832  atoms
15792  bonds
27503  angles
25989  dihedrals

   16  atom types
   14  bond types
   21  angle types
   17  dihedral types

-0.2500000000 60.2500000000  xlo xhi
-0.2500000000 60.2500000000  ylo yhi
-0.2500000000 60.2500000000  zlo zhi

Masses

1   14.01000
2   32.06000
3   16.00000
4   12.01000
5   19.00000
6   16.00000
7   12.01000
8   12.01000
9    1.00800
10  32.06500
11  15.99940
12  12.01070
13   1.00794
14  32.06000
15  32.06000
16   6.94100

Pair Coeffs

1       0.17  3.249999
2       0.25  3.549340
3       0.21  2.959566
4      0.066  3.499450
5      0.053  2.948875
6       0.14  2.900000
7      0.066  3.500000
8      0.066  3.500000
9       0.03  2.500000
10    0.3950  3.560000
11    0.2800  2.700000
12    0.0660  3.500000
13    0.0300  2.500000
14  0.344001  3.590322
15  0.344001  3.590322
16  0.165057  1.506000

Bond Coeffs

1   441.80  1.323
2   235.40  1.818
3   637.10  1.442
4   372.00  1.570
5   320.00  1.410
6   320.00  1.380
7   268.00  1.529
8   340.00  1.090
9   340.00  1.090
10  700.00  1.530
11  340.00  1.853
12  340.00  1.090
13  157.87  2.133
14  154.36  2.117


Angle Coeffs

1    93.30  107.10
2    82.90  111.80
3   104.00  102.60
4   115.80  118.50
5    94.30  113.60
6    97.50  100.20
7    80.20  125.60
8    60.00  109.50
9    50.00  109.50
10   35.00  109.50
11   37.50  110.70
12   33.00  107.80
13   92.60  111.55
14   35.00  109.50
15   33.00  109.50
16   74.00  107.00
17   62.00   96.00
18   35.00  109.50
19   33.00  107.80
20   73.56  112.74
21   73.56  112.74


Dihedral Coeffs

1 1 0.173400000 3 0.000000000
2 1 0.158000000 3 0.000000000
3 1 -0.001800000 3 0.000000000
4 3 3.916460000 1 0.000000000 -1.245000000 2 180.000000000 -0.381800000 3 0.000000000
5 3 0.062500000 1 0.000000000 -0.011000000 2 180.000000000 0.280500000 3 0.000000000
6 3 0.062500000 1 0.000000000 -0.011000000 2 180.000000000 0.280500000 3 0.000000000
7 1 0.370500000 3 0.000000000
8 1 0.370500000 3 0.000000000
9 3 -0.533500000 1 0.000000000 -0.783500000 2 180.000000000 0.337500000 3 0.000000000
10 1 0.370500000 3 0.000000000
11 3 1.119000000 1 0.000000000 -1.163500000 2 180.000000000 -0.341500000 3 0.000000000
12 1 0.234000000 3 0.000000000
13 1 0.150000000 3 0.000000000
14 1 -0.072000000 3 0.000000000
15 1 0.531500000 3 0.000000000
16 4 5.431700000 1 0.000000000 -3.590000000 2 180.000000000 1.055600000 3 0.000000000 0.058320000 4 180.000000000
17 4 5.431700000 1 0.000000000 -3.590000000 2 180.000000000 1.055600000 3 0.000000000 0.058320000 4 180.000000000


Atoms

1         1   1 -0.45881126173096981047 53.6919270000 44.1882410000 34.7662280000
2         1   2  0.70907194994786237885 53.1999820000 43.0798110000 35.8453780000
3         1   3 -0.36843934654153637220 53.7426810000 41.7336130000 35.6121190000
4         1   3 -0.36843934654153637220 53.0629610000 43.5427440000 37.2357170000
5         1   4  0.24330900243309003250 51.4275400000 42.9845370000 35.2038010000
6         1   5 -0.11122697254084115692 51.3685480000 42.6028480000 33.9164930000
7         1   5 -0.11122697254084115692 50.7843490000 44.1580280000 35.3287300000
8         1   5 -0.11122697254084115692 50.7581310000 42.0681170000 35.9367010000
9         1   2  0.70907194994786237885 55.0489660000 45.0358700000 34.9101470000
10        1   3 -0.36843934654153637220 55.4875420000 45.4593120000 33.5743180000
11        1   3 -0.36843934654153637220 56.0340280000 44.5122110000 35.8673760000
12        1   4  0.24330900243309003250 54.4818150000 46.6649780000 35.6864870000
13        1   5 -0.11122697254084115692 53.5389260000 47.2644530000 34.9330600000
14        1   5 -0.11122697254084115692 53.9816190000 46.4873000000 36.9184840000
15        1   5 -0.11122697254084115692 55.5307890000 47.5123770000 35.7816360000
16        2   1 -0.45881126173096981047 56.7075830000 15.6195600000 28.6476430000
17        2   2  0.70907194994786237885 55.2246480000 15.0990550000 28.2412340000
18        2   3 -0.36843934654153637220 54.3183110000 16.1643750000 27.7886550000
19        2   3 -0.36843934654153637220 55.1571450000 13.7944290000 27.5633550000
20        2   4  0.24330900243309003250 54.6736250000 14.7397560000 30.0102820000
21        2   5 -0.11122697254084115692 54.7078210000 15.8341160000 30.7897270000
22        2   5 -0.11122697254084115692 55.4239220000 13.7847370000 30.5859340000
23        2   5 -0.11122697254084115692 53.3977840000 14.2968010000 29.9771650000
24        2   2  0.70907194994786237885 57.9138920000 15.7896450000 27.6004420000
25        2   3 -0.36843934654153637220 58.8544220000 16.7909390000 28.1190040000
26        2   3 -0.36843934654153637220 57.5324000000 15.8160410000 26.1810680000
27        2   4  0.24330900243309003250 58.8941980000 14.1816090000 27.7781380000
28        2   5 -0.11122697254084115692 59.2960330000 13.9910140000 29.0502470000
29        2   5 -0.11122697254084115692 58.1775730000 13.1119180000 27.4015850000
30        2   5 -0.11122697254084115692 60.0000010000 14.2355460000 27.0023950000
31        3   1 -0.45881126173096981047 38.4566700000  3.4136190000 51.3970380000
32        3   2  0.70907194994786237885 37.9258570000  2.6915140000 52.7505480000
33        3   3 -0.36843934654153637220 37.6938280000  1.2468570000 52.6080360000
34        3   3 -0.36843934654153637220 38.4962170000  3.1824790000 54.0153680000
35        3   4  0.24330900243309003250 36.1981420000  3.4486750000 52.6876360000
36        3   5 -0.11122697254084115692 35.5373620000  3.1243670000 51.5631250000
37        3   5 -0.11122697254084115692 36.2328850000  4.7884580000 52.7884170000
38        3   5 -0.11122697254084115692 35.4874870000  2.9753810000 53.7345550000
39        3   2  0.70907194994786237885 40.0058940000  3.5089690000 50.9828440000
40        3   3 -0.36843934654153637220 40.0989270000  3.6520370000 49.5244310000
41        3   3 -0.36843934654153637220 40.9149780000  2.5903990000 51.6833070000
42        3   4  0.24330900243309003250 40.5302820000  5.2210500000 51.5928860000
43        3   5 -0.11122697254084115692 39.7598150000  6.1887290000 51.0580590000
44        3   5 -0.11122697254084115692 40.4603260000  5.3217610000 52.9287550000
45        3   5 -0.11122697254084115692 41.8080300000  5.4631880000 51.2238130000
46        4   1 -0.45881126173096981047  3.0019230000 18.9988440000 12.3108220000
47        4   2  0.70907194994786237885  3.7285950000 18.1148940000 13.4622430000
48        4   3 -0.36843934654153637220  5.1789750000 18.3338430000 13.5604310000
49        4   3 -0.36843934654153637220  2.9691620000 17.9198740000 14.7077760000
50        4   4  0.24330900243309003250  3.5669860000 16.4707070000 12.5496740000
51        4   5 -0.11122697254084115692  4.1849550000 16.4843180000 11.3562510000
52        4   5 -0.11122697254084115692  2.2819330000 16.1264470000 12.3586090000
53        4   5 -0.11122697254084115692  4.1436680000 15.5078970000 13.3016780000
54        4   2  0.70907194994786237885  2.4587020000 20.4932120000 12.5399930000
55        4   3 -0.36843934654153637220  2.4269680000 21.1896640000 11.2476930000
56        4   3 -0.36843934654153637220  2.9740450000 21.1879750000 13.7285130000
57        4   4  0.24330900243309003250  0.6206320000 20.2512000000 12.9158690000
58        4   5 -0.11122697254084115692 -0.0000830000 19.5896210000 11.9193320000
59        4   5 -0.11122697254084115692  0.4260660000 19.5694630000 14.0547110000
60        4   5 -0.11122697254084115692  0.0207470000 21.4558090000 13.0444870000
61        5   1 -0.45881126173096981047 23.7243520000 21.8431580000 50.3794310000
62        5   2  0.70907194994786237885 23.4852150000 23.4440380000 50.5026680000
63        5   3 -0.36843934654153637220 23.1829680000 24.1053300000 49.2249660000
64        5   3 -0.36843934654153637220 22.7772730000 23.9042930000 51.7081170000
65        5   4  0.24330900243309003250 25.2953270000 23.8674580000 50.8289520000
66        5   5 -0.11122697254084115692 26.1010310000 23.4796890000 49.8255570000
67        5   5 -0.11122697254084115692 25.7424500000 23.3157620000 51.9700460000
68        5   5 -0.11122697254084115692 25.4037270000 25.2086030000 50.9500160000
69        5   2  0.70907194994786237885 22.5437130000 20.7553510000 50.4386550000
70        5   3 -0.36843934654153637220 22.9766120000 19.5463980000 49.7265290000
71        5   3 -0.36843934654153637220 21.1833810000 21.2731090000 50.2330410000
72        5   4  0.24330900243309003250 22.5460260000 20.1864560000 52.2427360000
73        5   5 -0.11122697254084115692 23.7522820000 19.7056950000 52.6031210000
74        5   5 -0.11122697254084115692 22.2242930000 21.1808750000 53.0836870000
75        5   5 -0.11122697254084115692 21.6430500000 19.1939660000 52.4073140000
76        6   1 -0.45881126173096981047 19.0622640000 23.6332650000 34.1912350000
77        6   2  0.70907194994786237885 19.9052820000 24.4654360000 33.0812790000
78        6   3 -0.36843934654153637220 19.1646030000 24.7285530000 31.8389640000
79        6   3 -0.36843934654153637220 20.7949990000 25.5185980000 33.5964300000
80        6   4  0.24330900243309003250 21.0651010000 23.0435860000 32.6392220000
81        6   5 -0.11122697254084115692 20.4044710000 21.9687660000 32.1759100000
82        6   5 -0.11122697254084115692 21.8144650000 22.6620950000 33.6876970000
83        6   5 -0.11122697254084115692 21.9024600000 23.4640330000 31.6660150000
84        6   2  0.70907194994786237885 18.0868770000 24.3156250000 35.2700070000
85        6   3 -0.36843934654153637220 17.0750310000 23.3345130000 35.6819260000
86        6   3 -0.36843934654153637220 17.6841670000 25.7004200000 34.9853630000
87        6   4  0.24330900243309003250 19.1625780000 24.4639880000 36.8189460000
88        6   5 -0.11122697254084115692 19.6438680000 23.2636160000 37.1977980000
89        6   5 -0.11122697254084115692 20.2022200000 25.2907840000 36.6315080000
90        6   5 -0.11122697254084115692 18.4231420000 24.9504880000 37.8407280000
91        7   1 -0.45881126173096981047 34.5565420000 23.5518100000 18.9690010000
92        7   2  0.70907194994786237885 33.1685210000 22.7610370000 19.2575580000
93        7   3 -0.36843934654153637220 32.0728650000 23.1204220000 18.3456570000
94        7   3 -0.36843934654153637220 33.2960560000 21.3541320000 19.6704470000
95        7   4  0.24330900243309003250 32.7679570000 23.6858050000 20.8533650000
96        7   5 -0.11122697254084115692 32.6484180000 25.0106500000 20.6614720000
97        7   5 -0.11122697254084115692 33.6966300000 23.4761730000 21.8020500000
98        7   5 -0.11122697254084115692 31.5872200000 23.2292890000 21.3250990000
99        7   2  0.70907194994786237885 35.6670750000 23.0555490000 17.9196280000
100       7   3 -0.36843934654153637220 36.4436540000 24.2164410000 17.4664770000
101       7   3 -0.36843934654153637220 35.2230820000 22.0508860000 16.9427060000
102       7   4  0.24330900243309003250 36.9165260000 22.1252990000 18.9928760000
103       7   5 -0.11122697254084115692 37.4021540000 22.9124340000 19.9730010000
104       7   5 -0.11122697254084115692 36.3784580000 21.0353110000 19.5603190000
105       7   5 -0.11122697254084115692 37.9603960000 21.7260310000 18.2323460000
106       8   1 -0.45881126173096981047  5.0970130000 41.0917410000 27.7494350000
107       8   2  0.70907194994786237885  3.8028560000 41.0930700000 26.7694620000
108       8   3 -0.36843934654153637220  4.0940230000 40.6731990000 25.3910160000
109       8   3 -0.36843934654153637220  2.5307000000 40.6642660000 27.3726790000
110       8   4  0.24330900243309003250  3.6643070000 42.9724110000 26.6639590000
111       8   5 -0.11122697254084115692  4.7723390000 43.5401300000 26.1577100000
112       8   5 -0.11122697254084115692  3.4134510000 43.5256870000 27.8628500000
113       8   5 -0.11122697254084115692  2.6336950000 43.2780880000 25.8457440000
114       8   2  0.70907194994786237885  5.5991580000 39.8026520000 28.5660380000
115       8   3 -0.36843934654153637220  7.0345710000 39.9448300000 28.8407500000
116       8   3 -0.36843934654153637220  5.0700530000 38.5088400000 28.1111180000
117       8   4  0.24330900243309003250  4.8333120000 40.0297250000 30.2807610000
118       8   5 -0.11122697254084115692  5.2017860000 41.2038050000 30.8301480000
119       8   5 -0.11122697254084115692  3.4930100000 39.9889050000 30.2419690000
120       8   5 -0.11122697254084115692  5.2559820000 39.0422120000 31.1015260000
121       9   1 -0.45881126173096981047 56.6667610000 44.0696430000  4.8352480000
122       9   2  0.70907194994786237885 57.8203550000 44.4352240000  5.9172660000
123       9   3 -0.36843934654153637220 58.6571110000 45.5826310000  5.5371620000
124       9   3 -0.36843934654153637220 57.4542150000 44.2811060000  7.3344160000
125       9   4  0.24330900243309003250 58.8961030000 42.9304110000  5.5423590000
126       9   5 -0.11122697254084115692 59.2977100000 42.8944320000  4.2602730000
127       9   5 -0.11122697254084115692 58.2629630000 41.7782140000  5.8215680000
128       9   5 -0.11122697254084115692 60.0000050000 42.9921380000  6.3186770000
129       9   2  0.70907194994786237885 55.2093410000 44.7452220000  4.8190520000
130       9   3 -0.36843934654153637220 54.6674360000 44.6711840000  3.4563530000
131       9   3 -0.36843934654153637220 55.0698410000 45.9883850000  5.5910220000
132       9   4  0.24330900243309003250 54.1283350000 43.5057220000  5.7536220000
133       9   5 -0.11122697254084115692 54.1734060000 42.2868700000  5.1805340000
134       9   5 -0.11122697254084115692 54.5026850000 43.3788150000  7.0355500000
135       9   5 -0.11122697254084115692 52.8417900000 43.9203830000  5.7350630000
136      10   1 -0.45881126173096981047 15.2805440000 27.2330530000 25.7528760000
137      10   2  0.70907194994786237885 16.7181210000 26.4931300000 25.8980490000
138      10   3 -0.36843934654153637220 16.7355570000 25.1124000000 25.3936060000
139      10   3 -0.36843934654153637220 17.9062170000 27.3314100000 25.6703640000
140      10   4  0.24330900243309003250 16.6288030000 26.3021520000 27.7736290000
141      10   5 -0.11122697254084115692 15.5654050000 25.5793510000 28.1648740000
142      10   5 -0.11122697254084115692 16.5869580000 27.4914880000 28.3982170000
143      10   5 -0.11122697254084115692 17.7409620000 25.6577160000 28.1894200000
144      10   2  0.70907194994786237885 14.8113990000 28.0254120000 24.4365130000
145      10   3 -0.36843934654153637220 13.3438680000 28.0390370000 24.3889910000
146      10   3 -0.36843934654153637220 15.5764650000 27.7461290000 23.2127770000
147      10   4  0.24330900243309003250 15.2215960000 29.8301980000 24.8274640000
148      10   5 -0.11122697254084115692 14.6117610000 30.2372010000 25.9581770000
149      10   5 -0.11122697254084115692 16.5409670000 30.0260910000 24.9705300000
150      10   5 -0.11122697254084115692 14.7901660000 30.6225400000 23.8207130000
151      11   1 -0.45881126173096981047 21.0387100000 47.5480740000 50.6537080000
152      11   2  0.70907194994786237885 21.3010580000 46.2155390000 49.7644870000
153      11   3 -0.36843934654153637220 21.2285310000 46.4391200000 48.3133030000
154      11   3 -0.36843934654153637220 22.3206920000 45.2846290000 50.2742670000
155      11   4  0.24330900243309003250 19.6568140000 45.3930020000 50.1912690000
156      11   5 -0.11122697254084115692 18.6005180000 46.1362790000 49.8196430000
157      11   5 -0.11122697254084115692 19.5515950000 45.1326980000 51.5056330000
158      11   5 -0.11122697254084115692 19.5855270000 44.2162410000 49.5315520000
159      11   2  0.70907194994786237885 22.1891190000 48.5934730000 51.0592250000
160      11   3 -0.36843934654153637220 21.5737930000 49.9036670000 51.3059130000
161      11   3 -0.36843934654153637220 23.4350180000 48.5091690000 50.2836720000
162      11   4  0.24330900243309003250 22.6981900000 48.0502630000 52.7982260000
163      11   5 -0.11122697254084115692 21.6438280000 48.0433600000 53.6374720000
164      11   5 -0.11122697254084115692 23.2436110000 46.8246690000 52.8024040000
165      11   5 -0.11122697254084115692 23.6119950000 48.9139380000 53.2947240000
166      12   1 -0.45881126173096981047 44.2152240000 13.4414890000 25.6442500000
167      12   2  0.70907194994786237885 44.1630520000 12.3555930000 24.4387230000
168      12   3 -0.36843934654153637220 43.3886980000 11.1463810000 24.7539460000
169      12   3 -0.36843934654153637220 44.0737860000 12.9023780000 23.0752040000
170      12   4  0.24330900243309003250 45.9627270000 11.8139750000 24.6121380000
171      12   5 -0.11122697254084115692 46.2316710000 11.3123640000 25.8296700000
172      12   5 -0.11122697254084115692 46.8165910000 12.8234070000 24.3705940000
173      12   5 -0.11122697254084115692 46.2047800000 10.8437430000 23.7037680000
174      12   2  0.70907194994786237885 43.1020220000 14.5766760000 25.8741900000
175      12   3 -0.36843934654153637220 43.1033430000 14.9620840000 27.2910710000
176      12   3 -0.36843934654153637220 41.8241680000 14.3727550000 25.1767940000
177      12   4  0.24330900243309003250 43.8381950000 16.1050060000 25.0371630000
178      12   5 -0.11122697254084115692 45.0461470000 16.4105150000 25.5505600000
179      12   5 -0.11122697254084115692 43.9774390000 15.9351860000 23.7137760000
180      12   5 -0.11122697254084115692 43.0268550000 17.1676620000 25.2371040000
181      13   1 -0.45881126173096981047 44.3579700000 16.5290510000  3.9261180000
182      13   2  0.70907194994786237885 43.0043540000 16.5942970000  4.8197920000
183      13   3 -0.36843934654153637220 42.4501230000 15.2773610000  5.1657530000
184      13   3 -0.36843934654153637220 42.9448420000 17.6611700000  5.8319030000
185      13   4  0.24330900243309003250 41.8990520000 17.2110430000  3.4197270000
186      13   5 -0.11122697254084115692 41.8645100000 16.3588420000  2.3810310000
187      13   5 -0.11122697254084115692 42.2862800000 18.4160770000  2.9677000000
188      13   5 -0.11122697254084115692 40.6401000000 17.3343440000  3.8939760000
189      13   2  0.70907194994786237885 45.8343210000 16.4035450000  4.5469080000
190      13   3 -0.36843934654153637220 46.7171770000 15.7855060000  3.5495700000
191      13   3 -0.36843934654153637220 45.9057080000 15.9703590000  5.9498010000
192      13   4  0.24330900243309003250 46.4577300000 18.1890050000  4.5898850000
193      13   5 -0.11122697254084115692 46.4246170000 18.7489490000  3.3645570000
194      13   5 -0.11122697254084115692 45.7325260000 18.9547170000  5.4189480000
195      13   5 -0.11122697254084115692 47.7401180000 18.2123250000  5.0169970000
196      14   1 -0.45881126173096981047 19.8820170000 47.5811620000 36.7050600000
197      14   2  0.70907194994786237885 20.3375920000 47.2229400000 38.2214110000
198      14   3 -0.36843934654153637220 19.4645350000 46.2515510000 38.8962130000
199      14   3 -0.36843934654153637220 21.7872090000 47.1388500000 38.4615470000
200      14   4  0.24330900243309003250 19.8345970000 48.8880510000 38.9539740000
201      14   5 -0.11122697254084115692 18.5257020000 49.1454310000 38.7900260000
202      14   5 -0.11122697254084115692 20.5368850000 49.9033440000 38.4226040000
203      14   5 -0.11122697254084115692 20.0868790000 48.8630710000 40.2809280000
204      14   2  0.70907194994786237885 20.3272680000 46.7352020000 35.4139970000
205      14   3 -0.36843934654153637220 19.3258410000 46.9216040000 34.3564110000
206      14   3 -0.36843934654153637220 20.8630150000 45.3924700000 35.6802720000
207      14   4  0.24330900243309003250 21.8129960000 47.6921860000 34.7393490000
208      14   5 -0.11122697254084115692 21.4897620000 48.9725220000 34.4704240000
209      14   5 -0.11122697254084115692 22.8427780000 47.6929340000 35.5990750000
210      14   5 -0.11122697254084115692 22.2337150000 47.1245910000 33.5868220000
211      15   1 -0.45881126173096981047 27.5608600000 34.3700150000 57.1987390000
212      15   2  0.70907194994786237885 26.7886070000 35.3109700000 56.1247650000
213      15   3 -0.36843934654153637220 26.9080970000 36.7512020000 56.3942780000
214      15   3 -0.36843934654153637220 26.8225000000 34.8607790000 54.7239430000
215      15   4  0.24330900243309003250 25.0529240000 34.8687070000 56.7197940000
216      15   5 -0.11122697254084115692 24.8576310000 35.1863070000 58.0110410000
217      15   5 -0.11122697254084115692 24.7845000000 33.5616640000 56.5586370000
218      15   5 -0.11122697254084115692 24.1599980000 35.5661210000 55.9840140000
219      15   2  0.70907194994786237885 29.1093880000 33.9599300000 57.0777770000
220      15   3 -0.36843934654153637220 29.6245590000 33.6522200000 58.4179280000
221      15   3 -0.36843934654153637220 29.9177440000 34.7709750000 56.1560280000
222      15   4  0.24330900243309003250 29.0608300000 32.2547610000 56.2602220000
223      15   5 -0.11122697254084115692 28.3192860000 31.3883260000 56.9781820000
224      15   5 -0.11122697254084115692 28.5565680000 32.3070780000 55.0182220000
225      15   5 -0.11122697254084115692 30.3137870000 31.7536610000 56.1797060000
226      16   1 -0.45881126173096981047 39.2321430000 37.1900680000 49.7068990000
227      16   2  0.70907194994786237885 39.1307350000 38.3218410000 48.5475910000
228      16   3 -0.36843934654153637220 40.2484810000 39.2767220000 48.5423240000
229      16   3 -0.36843934654153637220 38.5887690000 37.8789510000 47.2528920000
230      16   4  0.24330900243309003250 37.7117070000 39.2710280000 49.3523600000
231      16   5 -0.11122697254084115692 38.0288270000 39.7256180000 50.5767420000
232      16   5 -0.11122697254084115692 36.5996440000 38.5228480000 49.4519890000
233      16   5 -0.11122697254084115692 37.4210910000 40.3394320000 48.5783230000
234      16   2  0.70907194994786237885 40.0242800000 35.8029910000 49.5357900000
235      16   3 -0.36843934654153637220 40.4255490000 35.3192070000 50.8628270000
236      16   3 -0.36843934654153637220 40.9794280000 35.7430560000 48.4200140000
237      16   4  0.24330900243309003250 38.6746140000 34.5714460000 49.0458360000
238      16   5 -0.11122697254084115692 37.6912600000 34.5306180000 49.9663850000
239      16   5 -0.11122697254084115692 38.1247540000 34.8738070000 47.8601670000
240      16   5 -0.11122697254084115692 39.2031460000 33.3305290000 48.9549250000
241      17   1 -0.45881126173096981047 28.7055480000  2.1308510000 47.1606720000
242      17   2  0.70907194994786237885 27.5574780000  2.4613630000 48.2597110000
243      17   3 -0.36843934654153637220 26.3620910000  1.6124610000 48.1520260000
244      17   3 -0.36843934654153637220 28.0312830000  2.8273740000 49.6042070000
245      17   4  0.24330900243309003250 27.0360710000  4.1000080000 47.4817460000
246      17   5 -0.11122697254084115692 26.6007320000  3.9519350000 46.2188590000
247      17   5 -0.11122697254084115692 28.0362900000  4.9977490000 47.4836650000
248      17   5 -0.11122697254084115692 26.0208180000  4.6132790000 48.2103690000
249      17   2  0.70907194994786237885 29.8448460000  1.0168220000 47.3648300000
250      17   3 -0.36843934654153637220 30.3042310000  0.5612080000 46.0466980000
251      17   3 -0.36843934654153637220 29.5972010000  0.0334120000 48.4289870000
252      17   4  0.24330900243309003250 31.3312460000  2.0032790000 47.9940160000
253      17   5 -0.11122697254084115692 31.6702610000  2.9817080000 47.1315740000
254      17   5 -0.11122697254084115692 31.0928720000  2.5638680000 49.1892140000
255      17   5 -0.11122697254084115692 32.3982700000  1.1835570000 48.1244090000
256      18   1 -0.45881126173096981047 42.6600940000 21.3788070000 22.4114930000
257      18   2  0.70907194994786237885 42.7006790000 22.8078150000 21.6424150000
258      18   3 -0.36843934654153637220 41.9134090000 22.8434920000 20.4014010000
259      18   3 -0.36843934654153637220 42.7053210000 24.0058260000 22.4973260000
260      18   4  0.24330900243309003250 44.4867830000 22.6409010000 21.0557100000
261      18   5 -0.11122697254084115692 44.6714730000 21.5609510000 20.2772970000
262      18   5 -0.11122697254084115692 45.3493600000 22.5755310000 22.0843340000
263      18   5 -0.11122697254084115692 44.7989580000 23.7337870000 20.3254870000
264      18   2  0.70907194994786237885 41.5262780000 20.9657860000 23.4719720000
265      18   3 -0.36843934654153637220 41.4242960000 19.5014890000 23.5110320000
266      18   3 -0.36843934654153637220 40.3026270000 21.7801340000 23.4527440000
267      18   4  0.24330900243309003250 42.3106280000 21.3628360000 25.1469350000
268      18   5 -0.11122697254084115692 43.4770250000 20.7076550000 25.3091650000
269      18   5 -0.11122697254084115692 42.5448120000 22.6755450000 25.2936760000
270      18   5 -0.11122697254084115692 41.4804920000 20.9747330000 26.1407840000
271      19   1 -0.45881126173096981047  4.3610770000 11.5487140000 40.1788110000
272      19   2  0.70907194994786237885  5.3713410000 12.7471140000 40.6011780000
273      19   3 -0.36843934654153637220  6.7029330000 12.6539520000 39.9852510000
274      19   3 -0.36843934654153637220  4.7686050000 14.0809200000 40.7554340000
275      19   4  0.24330900243309003250  5.6331660000 12.1411800000 42.3693810000
276      19   5 -0.11122697254084115692  6.1548890000 10.9034100000 42.4147520000
277      19   5 -0.11122697254084115692  4.4902870000 12.1465190000 43.0766150000
278      19   5 -0.11122697254084115692  6.5001800000 12.9768120000 42.9818210000
279      19   2  0.70907194994786237885  3.4293510000 11.5837730000 38.8706060000
280      19   3 -0.36843934654153637220  3.1297670000 10.2048040000 38.4646680000
281      19   3 -0.36843934654153637220  3.7910180000 12.5798810000 37.8518720000
282      19   4  0.24330900243309003250  1.7593980000 12.1865610000 39.5234910000
283      19   5 -0.11122697254084115692  1.2980500000 11.3843510000 40.5031240000
284      19   5 -0.11122697254084115692  1.8297010000 13.4365310000 40.0053750000
285      19   5 -0.11122697254084115692  0.8501670000 12.1769120000 38.5231450000
286      20   1 -0.45881126173096981047 47.7821610000  2.9658280000 52.4739400000
287      20   2  0.70907194994786237885 46.4022370000  2.3868450000 51.8448300000
288      20   3 -0.36843934654153637220 45.3944310000  2.0164000000 52.8489610000
289      20   3 -0.36843934654153637220 45.9415620000  3.0182680000 50.5977500000
290      20   4  0.24330900243309003250 47.1382420000  0.7384030000 51.2942070000
291      20   5 -0.11122697254084115692 47.6442930000  0.0347310000 52.3213820000
292      20   5 -0.11122697254084115692 48.1045480000  0.9019290000 50.3744820000
293      20   5 -0.11122697254084115692 46.1561480000 -0.0000020000 50.7326690000
294      20   2  0.70907194994786237885 48.0172160000  4.5114000000 52.8436660000
295      20   3 -0.36843934654153637220 49.0459670000  4.5980820000 53.8878160000
296      20   3 -0.36843934654153637220 46.8060190000  5.3381780000 52.9451310000
297      20   4  0.24330900243309003250 48.9156500000  5.2045820000 51.3301700000
298      20   5 -0.11122697254084115692 50.0506480000  4.5226760000 51.0794810000
299      20   5 -0.11122697254084115692 48.1509420000  5.1624440000 50.2287950000
300      20   5 -0.11122697254084115692 49.2529180000  6.4945210000 51.5533150000
301      21   1 -0.45881126173096981047 35.7479650000 41.8943350000 58.9391120000
302      21   2  0.70907194994786237885 35.1742770000 40.8272250000 57.8586730000
303      21   3 -0.36843934654153637220 33.7260310000 40.5944540000 57.9565650000
304      21   3 -0.36843934654153637220 35.7827810000 40.8679560000 56.5192000000
305      21   4  0.24330900243309003250 35.9454520000 39.3132590000 58.6805270000
306      21   5 -0.11122697254084115692 35.5182220000 39.1425380000 59.9433250000
307      21   5 -0.11122697254084115692 37.2879270000 39.3767110000 58.6912890000
308      21   5 -0.11122697254084115692 35.5907410000 38.2180400000 57.9735960000
309      21   2  0.70907194994786237885 35.7790010000 43.4823010000 58.6979860000
310      21   3 -0.36843934654153637220 35.7722330000 44.1599860000 60.0005940000
311      21   3 -0.36843934654153637220 34.9234060000 43.9832730000 57.6127020000
312      21   4  0.24330900243309003250 37.5365170000 43.8093090000 58.0794750000
313      21   5 -0.11122697254084115692 38.4557920000 43.3713130000 58.9621720000
314      21   5 -0.11122697254084115692 37.7730440000 43.2149950000 56.9003110000
315      21   5 -0.11122697254084115692 37.7219730000 45.1388220000 57.9198270000
316      22   1 -0.45881126173096981047  5.7973170000 26.3524430000 48.0530350000
317      22   2  0.70907194994786237885  5.9256320000 27.8844260000 48.5743330000
318      22   3 -0.36843934654153637220  7.3053260000 28.3903340000 48.6153600000
319      22   3 -0.36843934654153637220  4.8595310000 28.8063560000 48.1505440000
320      22   4  0.24330900243309003250  5.5203340000 27.4916800000 50.3753700000
321      22   5 -0.11122697254084115692  6.3897880000 26.6224200000 50.9182920000
322      22   5 -0.11122697254084115692  4.2796130000 26.9939130000 50.5140150000
323      22   5 -0.11122697254084115692  5.5856040000 28.6385650000 51.0863350000
324      22   2  0.70907194994786237885  5.6763460000 25.9417790000 46.5046600000
325      22   3 -0.36843934654153637220  6.1698980000 24.5689040000 46.3381940000
326      22   3 -0.36843934654153637220  6.0623920000 26.9764320000 45.5344450000
327      22   4  0.24330900243309003250  3.8147340000 25.7390870000 46.2369430000
328      22   5 -0.11122697254084115692  3.2936690000 24.8319730000 47.0864710000
329      22   5 -0.11122697254084115692  3.1543180000 26.8948580000 46.4031440000
330      22   5 -0.11122697254084115692  3.5814240000 25.3039130000 44.9785010000
331      23   1 -0.45881126173096981047 44.1461460000 48.0751520000  9.0640910000
332      23   2  0.70907194994786237885 45.6805930000 48.4742960000  8.7157400000
333      23   3 -0.36843934654153637220 46.6854640000 47.6717100000  9.4279700000
334      23   3 -0.36843934654153637220 45.9532540000 48.8493270000  7.3189100000