Generated by pymatgen.io.lammps.data.LammpsData

15377  atoms
14661  bonds
26213  angles
26385  dihedrals

   18  atom types
   21  bond types
   36  angle types
   31  dihedral types

-0.2500000000 60.2500000000  xlo xhi
-0.2500000000 60.2500000000  ylo yhi
-0.2500000000 60.2500000000  zlo zhi

Masses

1   18.998403
2   15.999400
3   12.010700
4   12.010700
5   12.010700
6    1.007940
7   14.010000
8   32.060000
9   16.000000
10  12.010000
11  19.000000
12  16.000000
13  12.010000
14  12.010000
15   1.008000
16  32.060000
17  32.060000
18   6.941000

Pair Coeffs

1     0.0530  2.950000
2     0.1400  2.900000
3     0.0660  3.500000
4     0.0660  3.500000
5     0.0620  3.250000
6     0.0300  2.500000
7       0.17  3.249999
8       0.25  3.549340
9       0.21  2.959566
10     0.066  3.499450
11     0.053  2.948875
12      0.14  2.900000
13     0.066  3.500000
14     0.066  3.500000
15      0.03  2.500000
16  0.344001  3.590322
17  0.344001  3.590322
18  0.165057  1.506000

Bond Coeffs

1   455.00  1.355
2   367.00  1.332
3   470.00  1.351
4   320.00  1.410
5   320.00  1.410
6   268.00  1.529
7   268.00  1.529
8   268.00  1.529
9   340.00  1.090
10  340.00  1.090
11  441.80  1.323
12  235.40  1.818
13  637.10  1.442
14  372.00  1.570
15  320.00  1.410
16  320.00  1.380
17  268.00  1.529
18  340.00  1.090
19  340.00  1.090
20  157.87  2.133
21  154.36  2.117


Angle Coeffs

1    90.00  114.194
2    90.00  114.194
3   110.00  107.787
4   110.00  110.361
5    50.00  109.500
6    50.00  109.500
7    50.00  109.500
8    50.00  109.500
9    50.00  109.500
10   35.00  109.500
11   35.00  109.500
12   37.50  110.700
13   33.00  107.800
14   77.00  109.100
15   50.00  109.500
16   40.00  107.000
17   37.50  110.700
18   37.50  110.700
19   50.00  109.500
20   93.30  107.100
21   82.90  111.800
22  104.00  102.600
23  115.80  118.500
24   94.30  113.600
25   97.50  100.200
26   80.20  125.600
27   60.00  109.500
28   50.00  109.500
29   35.00  109.500
30   37.50  110.700
31   33.00  107.800
32   92.60  111.550
33   35.00  109.500
34   33.00  109.500
35   73.56  112.740
36   73.56  112.740


Dihedral Coeffs

1 3 1.726500000 1 0.000000000 -1.387000000 2 180.000000000 0.335500000 3 0.000000000
2 3 1.726500000 1 0.000000000 -1.387000000 2 180.000000000 0.335500000 3 0.000000000
3 3 0.062500000 1 0.000000000 -0.011000000 2 180.000000000 0.280500000 3 0.000000000
4 3 0.062500000 1 0.000000000 -0.011000000 2 180.000000000 0.280500000 3 0.000000000
5 3 0.062500000 1 0.000000000 -0.011000000 2 180.000000000 0.280500000 3 0.000000000
6 1 0.370500000 3 0.000000000
7 1 0.370500000 3 0.000000000
8 3 0.301000000 1 0.000000000 -1.359500000 2 180.000000000 0.367000000 3 0.000000000
9 3 0.301000000 1 0.000000000 -1.359500000 2 180.000000000 0.367000000 3 0.000000000
10 1 0.221000000 3 0.000000000
11 1 0.221000000 3 0.000000000
12 2 0.518500000 1 0.000000000 -0.728500000 2 180.000000000
13 2 0.518500000 1 0.000000000 -0.728500000 2 180.000000000
14 1 0.234000000 3 0.000000000
15 2 0.518500000 1 0.000000000 -0.728500000 2 180.000000000
16 1 0.032000000 3 0.000000000
17 1 0.173400000 3 0.000000000
18 1 0.158000000 3 0.000000000
19 1 -0.001800000 3 0.000000000
20 3 3.916460000 1 0.000000000 -1.245000000 2 180.000000000 -0.381800000 3 0.000000000
21 3 0.062500000 1 0.000000000 -0.011000000 2 180.000000000 0.280500000 3 0.000000000
22 3 0.062500000 1 0.000000000 -0.011000000 2 180.000000000 0.280500000 3 0.000000000
23 1 0.370500000 3 0.000000000
24 1 0.370500000 3 0.000000000
25 3 -0.533500000 1 0.000000000 -0.783500000 2 180.000000000 0.337500000 3 0.000000000
26 1 0.370500000 3 0.000000000
27 3 1.119000000 1 0.000000000 -1.163500000 2 180.000000000 -0.341500000 3 0.000000000
28 1 0.234000000 3 0.000000000
29 1 0.150000000 3 0.000000000
30 4 5.431700000 1 0.000000000 -3.590000000 2 180.000000000 1.055600000 3 0.000000000 0.058320000 4 180.000000000
31 4 5.431700000 1 0.000000000 -3.590000000 2 180.000000000 1.055600000 3 0.000000000 0.058320000 4 180.000000000


Atoms

1         1   1 -0.23260000000000000120 47.9055580000 31.2696600000 53.2458810000
2         1   1 -0.23260000000000000120 48.4888720000 32.9297190000 51.9488290000
3         1   1 -0.11999999999999999556 48.0302740000 32.9426450000 55.4626010000
4         1   1 -0.11999999999999999556 49.8906280000 32.9045260000 54.2703120000
5         1   1 -0.20569999999999999396 43.8158200000 33.4382710000 53.2388700000
6         1   1 -0.20569999999999999396 44.7481890000 34.6251830000 51.6658000000
7         1   1 -0.20569999999999999396 43.6091120000 32.8307590000 51.1481080000
8         1   2 -0.40400000000000002576 46.5658180000 33.0767510000 53.1132640000
9         1   3  0.64670000000000005258 47.8440000000 32.6283010000 53.1239110000
10        1   4  0.14230000000000000981 45.7016030000 32.4944930000 52.1318010000
11        1   5  0.08999999999999999667 48.5941130000 33.3158080000 54.2821920000
12        1   5  0.53229999999999999538 44.4601290000 33.3665060000 52.0572280000
13        1   6  0.08250000000000000389 46.1741940000 32.4809720000 51.1460470000
14        1   6  0.08250000000000000389 45.4079200000 31.4842430000 52.4280270000
15        1   6  0.14999999999999999445 48.5546420000 34.4039170000 54.1861820000
16        2   1 -0.23260000000000000120  9.2474740000 21.0095190000  5.2494110000
17        2   1 -0.23260000000000000120  8.5180140000 20.2229870000  7.1540510000
18        2   1 -0.11999999999999999556  6.6413300000 21.5973330000  4.4807940000
19        2   1 -0.11999999999999999556  6.9406860000 19.4894780000  5.0734640000
20        2   1 -0.20569999999999999396  8.3884830000 25.0947720000  7.2498410000
21        2   1 -0.20569999999999999396  8.1177430000 23.8655910000  9.0298520000
22        2   1 -0.20569999999999999396 10.0881920000 24.6952970000  8.5668440000
23        2   2 -0.40400000000000002576  8.1603860000 22.3915120000  6.6588090000
24        2   3  0.64670000000000005258  8.2404190000 21.1333490000  6.1632380000
25        2   4  0.14230000000000000981  9.3602800000 22.9204160000  7.2329820000
26        2   5  0.08999999999999999667  6.8817540000 20.7685930000  5.5324190000
27        2   5  0.53229999999999999538  8.9688220000 24.1565630000  8.0241370000
28        2   6  0.08250000000000000389  9.8211610000 22.2034570000  7.9176680000
29        2   6  0.08250000000000000389 10.0667700000 23.2092690000  6.4506520000
30        2   6  0.14999999999999999445  6.0721860000 20.8587590000  6.2612730000
31        3   1 -0.23260000000000000120 49.5012690000 42.1589220000 35.2438830000
32        3   1 -0.23260000000000000120 49.7686420000 40.6374040000 36.7904570000
33        3   1 -0.11999999999999999556 50.5113230000 44.0981120000 36.9607460000
34        3   1 -0.11999999999999999556 48.8101110000 42.9646420000 37.8004170000
35        3   1 -0.20569999999999999396 54.0922060000 41.7371690000 34.8263910000
36        3   1 -0.20569999999999999396 53.7862940000 40.0220240000 36.1368570000
37        3   1 -0.20569999999999999396 53.7325840000 39.7589930000 33.9658230000
38        3   2 -0.40400000000000002576 51.5778770000 41.7255030000 36.0040900000
39        3   3  0.64670000000000005258 50.2663640000 41.8308610000 36.3262770000
40        3   4  0.14230000000000000981 51.8944800000 40.8259240000 34.9365320000
41        3   5  0.08999999999999999667 50.1194140000 42.8868030000 37.4399830000
42        3   5  0.53229999999999999538 53.3950000000 40.5938660000 34.9791230000
43        3   6  0.08250000000000000389 51.3920980000 39.8637600000 35.0672530000
44        3   6  0.08250000000000000389 51.6310780000 41.2658600000 33.9712950000
45        3   6  0.14999999999999999445 50.7240790000 42.6259250000 38.3123830000
46        4   1 -0.23260000000000000120 17.4718900000 31.9600410000 10.4279870000
47        4   1 -0.23260000000000000120 18.7317820000 32.2369470000  8.6632230000
48        4   1 -0.11999999999999999556 18.9736330000 33.8472870000 11.8105050000
49        4   1 -0.11999999999999999556 20.1781710000 32.2027140000 10.9570460000
50        4   1 -0.20569999999999999396 15.6777520000 36.0120410000  9.0896130000
51        4   1 -0.20569999999999999396 16.8661770000 35.6438560000  7.2994430000
52        4   1 -0.20569999999999999396 14.7943360000 34.9483200000  7.3951630000
53        4   2 -0.40400000000000002576 17.5419990000 33.9847480000  9.4412160000
54        4   3  0.64670000000000005258 18.2462330000 32.8775050000  9.7774300000
55        4   4  0.14230000000000000981 16.3548040000 33.7671990000  8.6715400000
56        4   5  0.08999999999999999667 19.4405990000 33.3046500000 10.6537780000
57        4   5  0.53229999999999999538 15.9305330000 35.1155360000  8.1154760000
58        4   6  0.08250000000000000389 16.5446160000 33.0917780000  7.8330810000
59        4   6  0.08250000000000000389 15.5529190000 33.3758580000  9.3027590000
60        4   6  0.14999999999999999445 20.0685730000 34.0338550000 10.1354470000
61        5   1 -0.23260000000000000120  5.8944000000 35.7804110000 28.5171380000
62        5   1 -0.23260000000000000120  4.6933200000 35.1671770000 30.2375300000
63        5   1 -0.11999999999999999556  5.5211840000 33.2840710000 27.3521130000
64        5   1 -0.11999999999999999556  6.3558580000 33.1965180000 29.3965140000
65        5   1 -0.20569999999999999396  1.7602900000 36.1150730000 26.4614110000
66        5   1 -0.20569999999999999396  1.0238760000 35.8315910000 28.4936410000
67        5   1 -0.20569999999999999396  1.3786660000 37.8521800000 27.7341670000
68        5   2 -0.40400000000000002576  3.7335830000 35.2250620000 28.2000750000
69        5   3  0.64670000000000005258  4.8684760000 34.9603280000 28.8906580000
70        5   4  0.14230000000000000981  3.2700990000 36.5787260000 28.2441060000
71        5   5  0.08999999999999999667  5.2423830000 33.4811480000 28.6689130000
72        5   5  0.53229999999999999538  1.8428440000 36.5785260000 27.7243280000
73        5   6  0.08250000000000000389  3.2650750000 36.9625240000 29.2677800000
74        5   6  0.08250000000000000389  3.8816280000 37.2163030000 27.6005730000
75        5   6  0.14999999999999999445  4.4275760000 32.8190500000 28.9730080000
76        6   1 -0.23260000000000000120 22.5366100000  9.0427760000 25.7779860000
77        6   1 -0.23260000000000000120 21.4468030000  8.3487690000 24.0147300000
78        6   1 -0.11999999999999999556 20.3981790000 10.6787580000 26.4700540000
79        6   1 -0.11999999999999999556 21.1477650000 11.0138320000 24.4182820000
80        6   1 -0.20569999999999999396 19.6315470000  6.2030450000 27.9973120000
81        6   1 -0.20569999999999999396 19.1343650000  5.5626010000 25.9736360000
82        6   1 -0.20569999999999999396 20.7174310000  4.5390640000 27.0834710000
83        6   2 -0.40400000000000002576 20.5889750000  7.9445120000 26.0583480000
84        6   3  0.64670000000000005258 21.2791070000  8.8236510000 25.2929690000
85        6   4  0.14230000000000000981 21.2150130000  6.6768360000 26.2824780000
86        6   5  0.08999999999999999667 20.4826540000 10.1418760000 25.2229970000
87        6   5  0.53229999999999999538 20.1516420000  5.7468160000 26.8406280000
88        6   6  0.08250000000000000389 21.5915400000  6.2504870000 25.3488350000
89        6   6  0.08250000000000000389 22.0230340000  6.7700680000 27.0125560000
90        6   6  0.14999999999999999445 19.4771840000  9.9741150000 24.8284790000
91        7   1 -0.23260000000000000120 18.9140180000 45.4619810000  6.1038860000
92        7   1 -0.23260000000000000120 21.0533050000 45.0932750000  6.3606040000
93        7   1 -0.11999999999999999556 18.7177440000 46.2439350000  8.7643950000
94        7   1 -0.11999999999999999556 19.6058230000 44.2390940000  8.4889850000
95        7   1 -0.20569999999999999396 20.2540620000 49.8927560000  6.0666040000
96        7   1 -0.20569999999999999396 22.2451440000 49.0124160000  5.9516240000
97        7   1 -0.20569999999999999396 21.1601960000 49.4990510000  4.1154500000
98        7   2 -0.40400000000000002576 20.2607440000 47.1806640000  6.6611370000
99        7   3  0.64670000000000005258 20.0082410000 45.8590400000  6.8177420000
100       7   4  0.14230000000000000981 20.4090590000 47.6387300000  5.3130500000
101       7   5  0.08999999999999999667 19.8143420000 45.5726120000  8.3201770000
102       7   5  0.53229999999999999538 21.0237020000 49.0262260000  5.3786040000
103       7   6  0.08250000000000000389 21.0812450000 46.9893890000  4.7458150000
104       7   6  0.08250000000000000389 19.4360760000 47.7049980000  4.8195730000
105       7   6  0.14999999999999999445 20.6902790000 45.8816930000  8.8963370000
106       8   1 -0.23260000000000000120 55.0973280000 44.9399940000  4.2006240000
107       8   1 -0.23260000000000000120 54.0817980000 46.0964300000  5.7529610000
108       8   1 -0.11999999999999999556 56.0811010000 47.2862450000  3.0800980000
109       8   1 -0.11999999999999999556 53.8835960000 47.2642930000  3.3133610000
110       8   1 -0.20569999999999999396 58.8526220000 45.8969440000  6.7325990000
111       8   1 -0.20569999999999999396 57.3756350000 46.6114560000  8.1680800000
112       8   1 -0.20569999999999999396 58.0570590000 44.5342220000  8.2469150000
113       8   2 -0.40400000000000002576 56.3284520000 46.1908450000  5.6140510000
114       8   3  0.64670000000000005258 55.1711530000 46.1008660000  4.9158140000
115       8   4  0.14230000000000000981 56.6215660000 45.0988290000  6.4919720000
116       8   5  0.08999999999999999667 55.0653760000 47.3247160000  3.9841740000
117       8   5  0.53229999999999999538 57.7404050000 45.5547260000  7.4126160000
118       8   6  0.08250000000000000389 55.7540300000 44.8392870000  7.1045530000
119       8   6  0.08250000000000000389 56.9618260000 44.2289810000  5.9243520000
120       8   6  0.14999999999999999445 55.1165110000 48.2574260000  4.5517960000
121       9   1 -0.23260000000000000120 13.4705110000 39.1083220000 43.2034000000
122       9   1 -0.23260000000000000120 12.7815170000 40.2710720000 41.4853510000
123       9   1 -0.11999999999999999556 15.1733800000 41.1796390000 43.9369970000
124       9   1 -0.11999999999999999556 15.4591170000 40.4862190000 41.8581890000
125       9   1 -0.20569999999999999396 10.7420110000 42.0168180000 45.5538930000
126       9   1 -0.20569999999999999396 10.0868410000 42.5942000000 43.5563920000
127       9   1 -0.20569999999999999396  9.0365360000 41.0048670000 44.6317240000
128       9   2 -0.40400000000000002576 12.4294460000 41.0747410000 43.5604000000
129       9   3  0.64670000000000005258 13.2787120000 40.3858280000 42.7609510000
130       9   4  0.14230000000000000981 11.1485620000 40.4759470000 43.7838830000
131       9   5  0.08999999999999999667 14.6169050000 41.1487040000 42.6960670000
132       9   5  0.53229999999999999538 10.2556280000 41.5456460000 44.3885640000
133       9   6  0.08250000000000000389 10.6990740000 40.1404190000 42.8454720000
134       9   6  0.08250000000000000389 11.2301480000 39.6431950000 44.4870710000
135       9   6  0.14999999999999999445 14.4708970000 42.1701810000 42.3354780000
136      10   1 -0.23260000000000000120 46.8523150000 36.7554740000 19.6545990000
137      10   1 -0.23260000000000000120 45.8409200000 37.2645800000 21.5244360000
138      10   1 -0.11999999999999999556 48.6634950000 35.1750600000 21.0510950000
139      10   1 -0.11999999999999999556 48.5396680000 37.2535150000 21.7917800000
140      10   1 -0.20569999999999999396 44.6309580000 32.7313440000 20.2030720000
141      10   1 -0.20569999999999999396 43.5988770000 33.8217020000 21.7837530000
142      10   1 -0.20569999999999999396 42.7795190000 33.8060190000 19.7554860000
143      10   2 -0.40400000000000002576 45.8988470000 35.1111100000 20.8649850000
144      10   3  0.64670000000000005258 46.5768520000 36.2831220000 20.9058280000
145      10   4  0.14230000000000000981 44.6865470000 35.1103230000 20.1037440000
146      10   5  0.08999999999999999667 47.8760910000 36.0690940000 21.7077750000
147      10   5  0.53229999999999999538 43.9274340000 33.8482400000 20.4753920000
148      10   6  0.08250000000000000389 44.0632650000 35.9739030000 20.3506960000
149      10   6  0.08250000000000000389 44.9042560000 35.0906560000 19.0328470000
150      10   6  0.14999999999999999445 47.6617180000 35.6978030000 22.7132330000
151      11   1 -0.23260000000000000120 16.0213820000 20.6517970000 14.4835190000
152      11   1 -0.23260000000000000120 15.2037920000 21.2033950000 16.4343360000
153      11   1 -0.11999999999999999556 16.5777860000 23.3224920000 13.9486480000
154      11   1 -0.11999999999999999556 14.4685510000 22.9434000000 14.4884060000
155      11   1 -0.20569999999999999396 20.0717730000 21.3932100000 16.5985870000
156      11   1 -0.20569999999999999396 18.8198710000 21.4922930000 18.3805940000
157      11   1 -0.20569999999999999396 19.6841550000 19.5809630000 17.7598780000
158      11   2 -0.40400000000000002576 17.3717760000 21.6330100000 15.9973640000
159      11   3  0.64670000000000005258 16.1202810000 21.5781120000 15.4818830000
160      11   4  0.14230000000000000981 17.9126730000 20.3957620000 16.4725560000
161      11   5  0.08999999999999999667 15.7417000000 22.9807260000 14.9658430000
162      11   5  0.53229999999999999538 19.1343150000 20.7351460000 17.3089990000
163      11   6  0.08250000000000000389 17.1955680000 19.8675480000 17.1065790000
164      11   6  0.08250000000000000389 18.2204460000 19.7633950000 15.6359000000
165      11   6  0.14999999999999999445 15.8118870000 23.7257510000 15.7625670000
166      12   1 -0.23260000000000000120 50.3706240000 45.2420350000 25.4230740000
167      12   1 -0.23260000000000000120 49.6087060000 47.2133510000 25.9814550000
168      12   1 -0.11999999999999999556 50.0154140000 45.8535000000 22.7345390000
169      12   1 -0.11999999999999999556 48.1893370000 46.1052920000 23.9535410000
170      12   1 -0.20569999999999999396 54.1686390000 47.6448400000 24.3138020000
171      12   1 -0.20569999999999999396 53.1210070000 49.2610900000 25.3349890000
172      12   1 -0.20569999999999999396 54.4750300000 47.9592760000 26.4563100000
173      12   2 -0.40400000000000002576 51.4842540000 47.0783640000 24.7405850000
174      12   3  0.64670000000000005258 50.2694710000 46.5323650000 24.9878880000
175      12   4  0.14230000000000000981 52.4254260000 47.0365650000 25.8183650000
176      12   5  0.08999999999999999667 49.4265000000 46.6103390000 23.6993730000
177      12   5  0.53229999999999999538 53.5535340000 47.9894270000 25.4624830000
178      12   6  0.08250000000000000389 51.9711290000 47.3729580000 26.7541470000
179      12   6  0.08250000000000000389 52.8348420000 46.0297020000 25.9333050000
180      12   6  0.14999999999999999445 49.3357100000 47.6420310000 23.3499080000
181      13   1 -0.23260000000000000120 11.7624680000  8.0003650000 54.3492410000
182      13   1 -0.23260000000000000120 12.1506480000  7.5578160000 52.2440410000
183      13   1 -0.11999999999999999556 14.0479830000  6.5954930000 55.0779660000
184      13   1 -0.11999999999999999556 12.6379730000  5.4232810000 53.8443890000
185      13   1 -0.20569999999999999396 15.1878180000 11.0573470000 53.7570260000
186      13   1 -0.20569999999999999396 14.9312740000 10.5359930000 51.6558360000
187      13   1 -0.20569999999999999396 13.8101980000 12.2095580000 52.5089640000
188      13   2 -0.40400000000000002576 13.6574880000  8.7680520000 53.4018090000
189      13   3  0.64670000000000005258 12.7657210000  7.7499020000 53.4574320000
190      13   4  0.14230000000000000981 13.1177070000 10.0643690000 53.1236720000
191      13   5  0.08999999999999999667 13.5202090000  6.4585320000 53.8316810000
192      13   5  0.53229999999999999538 14.2855170000 10.9650640000 52.7600810000
193      13   6  0.08250000000000000389 12.4284910000 10.0327650000 52.2756050000
194      13   6  0.08250000000000000389 12.6179210000 10.4709720000 54.0065610000
195      13   6  0.14999999999999999445 14.3202290000  6.2485980000 53.1170820000
196      14   1 -0.23260000000000000120 42.0248660000 33.1261540000 41.2985010000
197      14   1 -0.23260000000000000120 43.2418060000 34.3439540000 42.6455040000
198      14   1 -0.11999999999999999556 43.4876520000 34.0504050000 39.1226560000
199      14   1 -0.11999999999999999556 42.6169060000 35.6618690000 40.3591450000
200      14   1 -0.20569999999999999396 45.7840390000 30.4251570000 41.2525470000
201      14   1 -0.20569999999999999396 46.4196490000 31.7369100000 42.8736360000
202      14   1 -0.20569999999999999396 45.3133500000 29.9041780000 43.3238070000
203      14   2 -0.40400000000000002576 44.2377330000 32.7237690000 41.4376980000
204      14   3  0.64670000000000005258 43.2683860000 33.6699290000 41.4486270000
205      14   4  0.14230000000000000981 44.0913370000 31.6602950000 42.3846670000
206      14   5  0.08999999999999999667 43.5612910000 34.6835140000 40.3244380000
207      14   5  0.53229999999999999538 45.4233060000 30.9329030000 42.4478000000
208      14   6  0.08250000000000000389 43.8607550000 32.0462970000 43.3811960000
209      14   6  0.08250000000000000389 43.3192360000 30.9584490000 42.0592800000
210      14   6  0.14999999999999999445 44.5528520000 35.1278690000 40.4432400000
211      15   1 -0.23260000000000000120 17.5830910000 28.6729780000 53.1138230000
212      15   1 -0.23260000000000000120 15.8505740000 29.4428820000 54.2019530000
213      15   1 -0.11999999999999999556 16.7980650000 30.0776290000 50.8468920000
214      15   1 -0.11999999999999999556 15.2313360000 28.7451570000 51.6554720000
215      15   1 -0.20569999999999999396 19.2211080000 32.9439100000 53.8243990000
216      15   1 -0.20569999999999999396 17.4863830000 33.1035960000 55.1350690000
217      15   1 -0.20569999999999999396 19.4010990000 32.4159450000 55.9390960000
218      15   2 -0.40400000000000002576 17.3887000000 30.8959030000 53.4282840000
219      15   3  0.64670000000000005258 16.7301660000 29.7367180000 53.1882920000
220      15   4  0.14230000000000000981 18.2352140000 30.9127170000 54.5825330000
221      15   5  0.08999999999999999667 15.9314390000 29.8898650000 51.8785100000
222      15   5  0.53229999999999999538 18.5817650000 32.3652990000 54.8602630000
223      15   6  0.08250000000000000389 17.7201720000 30.5069150000 55.4573430000
224      15   6  0.08250000000000000389 19.1576930000 30.3584450000 54.3916940000
225      15   6  0.14999999999999999445 15.2413350000 30.7356600000 51.9346000000
226      16   1 -0.23260000000000000120 33.1755830000 50.3649220000 16.0370010000
227      16   1 -0.23260000000000000120 32.4642530000 49.9481050000 14.0124830000
228      16   1 -0.11999999999999999556 35.7002100000 50.9638480000 15.0390900000
229      16   1 -0.11999999999999999556 34.9569890000 48.9700740000 14.4420900000
230      16   1 -0.20569999999999999396 32.8131580000 54.7676010000 14.6535480000
231      16   1 -0.20569999999999999396 31.8022180000 53.8682950000 12.9442000000
232      16   1 -0.20569999999999999396 30.6433020000 54.4965280000 14.6899640000
233      16   2 -0.40400000000000002576 33.1935740000 52.0210870000 14.5089750000
234      16   3  0.64670000000000005258 33.3692740000 50.6956320000 14.7263960000
235      16   4  0.14230000000000000981 31.9412140000 52.5690430000 14.9338280000
236      16   5  0.08999999999999999667 34.7899190000 50.3088800000 14.2690790000
237      16   5  0.53229999999999999538 31.8132450000 53.9395490000 14.2915170000
238      16   6  0.08250000000000000389 31.1042480000 51.9507130000 14.5985850000
239      16   6  0.08250000000000000389 31.9197590000 52.6834910000 16.0205880000
240      16   6  0.14999999999999999445 34.9487210000 50.5645450000 13.2182820000
241      17   1 -0.23260000000000000120 13.1595720000 54.3460530000 17.8812450000
242      17   1 -0.23260000000000000120 15.0514350000 55.0310930000 18.7356290000
243      17   1 -0.11999999999999999556 14.3497700000 54.1457050000 15.3769350000
244      17   1 -0.11999999999999999556 14.5652990000 56.1382690000 16.3081470000
245      17   1 -0.20569999999999999396 15.2595050000 50.2215880000 17.9703750000
246      17   1 -0.20569999999999999396 16.7460680000 51.3015860000 19.1435600000
247      17   1 -0.20569999999999999396 15.0866790000 50.2915880000 20.1494380000
248      17   2 -0.40400000000000002576 14.9478140000 52.9763050000 17.8176010000
249      17   3  0.64670000000000005258 14.5143610000 54.2570750000 17.7356400000
250      17   4  0.14230000000000000981 14.5710550000 52.2575060000 18.9968130000
251      17   5  0.08999999999999999667 14.9576810000 54.8377280000 16.3779730000
252      17   5  0.53229999999999999538 15.4324590000 51.0076170000 19.0514890000
253      17   6  0.08250000000000000389 14.7603240000 52.8473820000 19.8976230000
254      17   6  0.08250000000000000389 13.5199650000 51.9617770000 18.9482370000
255      17   6  0.14999999999999999445 16.0424270000 54.7760140000 16.2584930000
256      18   1 -0.23260000000000000120 36.9695710000 21.5952990000 37.2546080000
257      18   1 -0.23260000000000000120 35.2351470000 22.5975770000 38.1295990000
258      18   1 -0.11999999999999999556 35.4498190000 20.8717730000 35.0421100000
259      18   1 -0.11999999999999999556 34.5744980000 20.2369630000 36.9694790000
260      18   1 -0.20569999999999999396 37.0725260000 25.3528140000 34.5528750000
261      18   1 -0.20569999999999999396 35.5805740000 26.0823010000 35.9651610000
262      18   1 -0.20569999999999999396 37.7023780000 26.4820660000 36.3167230000
263      18   2 -0.40400000000000002576 36.0459860000 23.3361510000 36.1616780000
264      18   3  0.64670000000000005258 35.8136590000 22.2475390000 36.9336370000
265      18   4  0.14230000000000000981 36.9753430000 24.2919840000 36.6830620000
266      18   5  0.08999999999999999667 34.8482280000 21.3106780000 36.1805210000
267      18   5  0.53229999999999999538 36.8200130000 25.5595070000 35.8605750000
268      18   6  0.08250000000000000389 36.7559130000 24.5286990000 37.7275960000
269      18   6  0.08250000000000000389 38.0006310000 23.9271110000 36.5817830000
270      18   6  0.14999999999999999445 33.9176840000 21.8251050000 35.9271200000
271      19   1 -0.23260000000000000120 47.0866740000 12.2693750000  8.8532490000
272      19   1 -0.23260000000000000120 46.8047950000 12.0284740000 11.0075260000
273      19   1 -0.11999999999999999556 49.6565790000 11.2299210000  9.0615790000
274      19   1 -0.11999999999999999556 49.2811800000 12.9502490000 10.3970440000
275      19   1 -0.20569999999999999396 46.4421670000  7.6854200000  8.8242660000
276      19   1 -0.20569999999999999396 45.8704130000  8.0206040000 10.9011330000
277      19   1 -0.20569999999999999396 44.3503430000  8.0761270000  9.3289490000
278      19   2 -0.40400000000000002576 47.1749030000 10.2009330000  9.7430980000
279      19   3  0.64670000000000005258 47.4695110000 11.5109260000  9.9222490000
280      19   4  0.14230000000000000981 45.8093870000  9.8977680000  9.4387620000
281      19   5  0.08999999999999999667 48.9854320000 11.6419760000 10.1707680000
282      19   5  0.53229999999999999538 45.6317800000  8.4012600000  9.6288840000
283      19   6  0.08250000000000000389 45.1276810000 10.4158460000 10.1185460000
284      19   6  0.08250000000000000389 45.5803130000 10.1529070000  8.4009590000
285      19   6  0.14999999999999999445 49.2969610000 11.0426080000 11.0301090000
286      20   1 -0.23260000000000000120 41.0212270000  8.8521060000 30.2581680000
287      20   1 -0.23260000000000000120 43.0231390000  9.6788510000 30.5535300000
288      20   1 -0.11999999999999999556 41.4535700000  7.0381490000 32.3199450000
289      20   1 -0.11999999999999999556 42.9965130000  6.9733580000 30.7391060000
290      20   1 -0.20569999999999999396 40.0688360000 11.2694360000 34.0894000000
291      20   1 -0.20569999999999999396 42.0517330000 12.1034220000 33.7355470000
292      20   1 -0.20569999999999999396 40.2898110000 13.0799310000 32.8826010000
293      20   2 -0.40400000000000002576 41.5291020000  9.8074570000 32.2348920000
294      20   3  0.64670000000000005258 41.9849730000  9.0566770000 31.2036390000
295      20   4  0.14230000000000000981 40.9584410000 11.0738280000 31.8887550000
296      20   5  0.08999999999999999667 42.4950320000  7.7139690000 31.7639280000
297      20   5  0.53229999999999999538 40.8465160000 11.8783060000 33.1723100000
298      20   6  0.08250000000000000389 41.6004360000 11.6206440000 31.1930040000
299      20   6  0.08250000000000000389 39.9598410000 10.9431020000 31.4641200000
300      20   6  0.14999999999999999445 43.2722210000  7.8708950000 32.5163310000
301      21   1 -0.23260000000000000120 19.0047260000 11.7370820000  5.1223180000
302      21   1 -0.23260000000000000120 21.0516030000 11.1626990000  5.6310210000
303      21   1 -0.11999999999999999556 19.1413010000 13.8564150000  6.9162120000
304      21   1 -0.11999999999999999556 19.6223470000 11.8960910000  7.8160160000
305      21   1 -0.20569999999999999396 21.1345690000 15.0835130000  2.7360970000
306      21   1 -0.20569999999999999396 22.9158370000 13.9176760000  3.2057080000
307      21   1 -0.20569999999999999396 21.8148240000 13.5295510000  1.3556840000
308      21   2 -0.40400000000000002576 20.6811920000 13.1857770000  4.7114480000
309      21   3  0.64670000000000005258 20.2002990000 12.2380970000  5.5514570000
310      21   4  0.14230000000000000981 20.8177500000 12.8013540000  3.3393210000
311      21   5  0.08999999999999999667 20.0614730000 12.8553560000  6.9573980000
312      21   5  0.53229999999999999538 21.6812370000 13.8535960000  2.6652270000
313      21   6  0.08250000000000000389 21.3173890000 11.8333220000  3.2470770000
314      21   6  0.08250000000000000389 19.8419310000 12.7754590000  2.8476780000
315      21   6  0.14999999999999999445 21.0172480000 13.2518040000  7.3096500000
316      22   1 -0.23260000000000000120 44.6013210000 41.3381350000 21.5119180000