Generated by pymatgen.io.lammps.data.LammpsData

17094  atoms
16319  bonds
29768  angles
32793  dihedrals

   16  atom types
   15  bond types
   25  angle types
   22  dihedral types

-0.2500000000 60.2500000000  xlo xhi
-0.2500000000 60.2500000000  ylo yhi
-0.2500000000 60.2500000000  zlo zhi

Masses

1   32.06500
2   15.99940
3   12.01070
4    1.00794
5   14.01000
6   32.06000
7   16.00000
8   12.01000
9   19.00000
10  16.00000
11  12.01000
12  12.01000
13   1.00800
14  32.06000
15  32.06000
16   6.94100

Pair Coeffs

1     0.2500  3.550000
2     0.1700  2.960000
3     0.0660  3.500000
4     0.0300  2.500000
5       0.17  3.249999
6       0.25  3.549340
7       0.21  2.959566
8      0.066  3.499450
9      0.053  2.948875
10      0.14  2.900000
11     0.066  3.500000
12     0.066  3.500000
13      0.03  2.500000
14  0.344001  3.590322
15  0.344001  3.590322
16  0.165057  1.506000

Bond Coeffs

1   735.00  1.471
2   205.00  1.840
3   268.00  1.529
4   340.00  1.090
5   441.80  1.323
6   235.40  1.818
7   637.10  1.442
8   372.00  1.570
9   320.00  1.410
10  320.00  1.380
11  268.00  1.529
12  340.00  1.090
13  340.00  1.090
14  157.87  2.133
15  154.36  2.117


Angle Coeffs

1   115.00  120.172
2   100.00  108.550
3    85.00  101.443
4    75.00  110.515
5    45.00  108.398
6    58.35  112.700
7    37.50  110.700
8    33.00  107.800
9    93.30  107.100
10   82.90  111.800
11  104.00  102.600
12  115.80  118.500
13   94.30  113.600
14   97.50  100.200
15   80.20  125.600
16   60.00  109.500
17   50.00  109.500
18   35.00  109.500
19   37.50  110.700
20   33.00  107.800
21   92.60  111.550
22   35.00  109.500
23   33.00  109.500
24   73.56  112.740
25   73.56  112.740


Dihedral Coeffs

1 3 -0.829000000 1 0.000000000 0.817000000 2 180.000000000 -0.104000000 3 0.000000000
2 1 0.260000000 3 0.000000000
3 3 -0.277000000 1 0.000000000 0.984500000 2 180.000000000 0.608500000 3 0.000000000
4 1 -0.139000000 3 0.000000000
5 1 0.150000000 3 0.000000000
6 1 0.150000000 3 0.000000000
7 1 0.150000000 3 0.000000000
8 1 0.173400000 3 0.000000000
9 1 0.158000000 3 0.000000000
10 1 -0.001800000 3 0.000000000
11 3 3.916460000 1 0.000000000 -1.245000000 2 180.000000000 -0.381800000 3 0.000000000
12 3 0.062500000 1 0.000000000 -0.011000000 2 180.000000000 0.280500000 3 0.000000000
13 3 0.062500000 1 0.000000000 -0.011000000 2 180.000000000 0.280500000 3 0.000000000
14 1 0.370500000 3 0.000000000
15 1 0.370500000 3 0.000000000
16 3 -0.533500000 1 0.000000000 -0.783500000 2 180.000000000 0.337500000 3 0.000000000
17 1 0.370500000 3 0.000000000
18 3 1.119000000 1 0.000000000 -1.163500000 2 180.000000000 -0.341500000 3 0.000000000
19 1 0.234000000 3 0.000000000
20 1 0.150000000 3 0.000000000
21 4 5.431700000 1 0.000000000 -3.590000000 2 180.000000000 1.055600000 3 0.000000000 0.058320000 4 180.000000000
22 4 5.431700000 1 0.000000000 -3.590000000 2 180.000000000 1.055600000 3 0.000000000 0.058320000 4 180.000000000


Atoms

1         1   1  0.94079999999999996962 37.2374130000 33.7971340000 53.1199780000
2         1   2 -0.53000000000000002665 38.3480640000 34.4935620000 52.4369370000
3         1   2 -0.53000000000000002665 37.1925070000 32.3217160000 53.1576990000
4         1   3 -0.39129999999999998117 35.6622240000 34.4071690000 52.3782100000
5         1   3 -0.04390000000000000152 35.7105340000 34.0901440000 50.8801720000
6         1   3 -0.04390000000000000152 34.4512990000 33.7904070000 53.0789590000
7         1   3 -0.47649999999999997913 37.2096380000 34.3938840000 54.8323360000
8         1   4  0.17869999999999999774 35.7026670000 35.4921420000 52.5343820000
9         1   4  0.05999999999999999778 35.7233430000 33.0072320000 50.7151720000
10        1   4  0.05999999999999999778 34.8151870000 34.5017590000 50.4002120000
11        1   4  0.05999999999999999778 36.5939850000 34.5274340000 50.4073710000
12        1   4  0.05999999999999999778 34.3897030000 34.0707950000 54.1361270000
13        1   4  0.05999999999999999778 33.5364070000 34.1418710000 52.5895120000
14        1   4  0.05999999999999999778 34.4841710000 32.6980200000 53.0094350000
15        1   4  0.17869999999999999774 38.1819530000 34.1209510000 55.2492620000
16        1   4  0.17869999999999999774 37.0905150000 35.4800020000 54.8346910000
17        1   4  0.17869999999999999774 36.4094120000 33.8979850000 55.3847890000
18        2   1  0.94079999999999996962 41.9134310000  1.1548530000  8.0460770000
19        2   2 -0.53000000000000002665 40.5126650000  1.6107190000  8.1691310000
20        2   2 -0.53000000000000002665 42.3938700000 -0.0004460000  8.8301440000
21        2   3 -0.39129999999999998117 42.9999380000  2.5993900000  8.4153940000
22        2   3 -0.04390000000000000152 42.6665940000  3.0699280000  9.8347010000
23        2   3 -0.04390000000000000152 44.4745020000  2.2354740000  8.2392910000
24        2   3 -0.47649999999999997913 42.2009380000  0.7897970000  6.2930440000
25        2   4  0.17869999999999999774 42.6865780000  3.3556440000  7.6852740000
26        2   4  0.05999999999999999778 42.9279960000  2.2992590000 10.5680670000
27        2   4  0.05999999999999999778 43.2504530000  3.9704420000 10.0574520000
28        2   4  0.05999999999999999778 41.6042700000  3.3066010000  9.9381580000
29        2   4  0.05999999999999999778 44.7186170000  1.9582500000  7.2079950000
30        2   4  0.05999999999999999778 45.0914800000  3.1010880000  8.5041750000
31        2   4  0.05999999999999999778 44.7444450000  1.4027510000  8.8972620000
32        2   4  0.17869999999999999774 41.4896960000 -0.0006860000  6.0420700000
33        2   4  0.17869999999999999774 41.9952800000  1.6836520000  5.6992630000
34        2   4  0.17869999999999999774 43.2238260000  0.4362670000  6.1509190000
35        3   1  0.94079999999999996962 36.1369570000 35.8673300000 11.0727350000
36        3   2 -0.53000000000000002665 37.0140510000 36.9378720000 10.5533640000
37        3   2 -0.53000000000000002665 34.6767230000 36.0716460000 11.1519220000
38        3   3 -0.39129999999999998117 36.7517420000 35.4143140000 12.7521380000
39        3   3 -0.04390000000000000152 36.6953360000 36.6788660000 13.6150890000
40        3   3 -0.04390000000000000152 35.9430120000 34.2565780000 13.3381310000
41        3   3 -0.47649999999999997913 36.4337970000 34.3966750000 10.0538580000
42        3   4  0.17869999999999999774 37.7951340000 35.1235740000 12.5789530000
43        3   4  0.05999999999999999778 35.6591680000 37.0076240000 13.7505860000
44        3   4  0.05999999999999999778 37.1183780000 36.4558670000 14.6013660000
45        3   4  0.05999999999999999778 37.2664250000 37.4954690000 13.1653490000
46        3   4  0.05999999999999999778 36.0366170000 33.3379440000 12.7487530000
47        3   4  0.05999999999999999778 36.3071430000 34.0401390000 14.3484170000
48        3   4  0.05999999999999999778 34.8828680000 34.5236390000 13.4013320000
49        3   4  0.17869999999999999774 36.1630870000 34.6902620000  9.0368820000
50        3   4  0.17869999999999999774 37.4930620000 34.1327300000 10.1001080000
51        3   4  0.17869999999999999774 35.7974850000 33.5767920000 10.3920580000
52        4   1  0.94079999999999996962 19.5964850000 42.0707540000  4.2264700000
53        4   2 -0.53000000000000002665 20.8461960000 41.7462250000  3.5067450000
54        4   2 -0.53000000000000002665 18.3631760000 41.3023300000  3.9642260000
55        4   3 -0.39129999999999998117 19.2396800000 43.8576230000  3.9377290000
56        4   3 -0.04390000000000000152 19.1052550000 44.0573530000  2.4247860000
57        4   3 -0.04390000000000000152 17.9964090000 44.3001540000  4.7098870000
58        4   3 -0.47649999999999997913 19.9573090000 41.9466780000  5.9994510000
59        4   4  0.17869999999999999774 20.1389800000 44.3665850000  4.3057060000
60        4   4  0.05999999999999999778 18.2387380000 43.5094430000  2.0387450000
61        4   4  0.05999999999999999778 18.9591990000 45.1238470000  2.2181640000
62        4   4  0.05999999999999999778 19.9994630000 43.7171820000  1.8957070000
63        4   4  0.05999999999999999778 18.1217880000 44.2116280000  5.7945350000
64        4   4  0.05999999999999999778 17.7906310000 45.3524560000  4.4853240000
65        4   4  0.05999999999999999778 17.1274820000 43.7050880000  4.4097450000
66        4   4  0.17869999999999999774 20.2648400000 40.9106350000  6.1599350000
67        4   4  0.17869999999999999774 20.7760110000 42.6254840000  6.2500450000
68        4   4  0.17869999999999999774 19.0577930000 42.1672030000  6.5771360000
69        5   1  0.94079999999999996962 30.5395210000 10.7212420000 38.4228040000
70        5   2 -0.53000000000000002665 30.0155350000  9.9183200000 37.2977010000
71        5   2 -0.53000000000000002665 31.5615260000 10.1593010000 39.3283570000
72        5   3 -0.39129999999999998117 29.0962110000 11.2586530000 39.4384950000
73        5   3 -0.04390000000000000152 28.3775170000  9.9926900000 39.9157520000
74        5   3 -0.04390000000000000152 29.5415870000 12.1608140000 40.5898120000
75        5   3 -0.47649999999999997913 31.2096250000 12.2512830000 37.7164140000
76        5   4  0.17869999999999999774 28.4643160000 11.8040600000 38.7268560000
77        5   4  0.05999999999999999778 29.0210400000  9.4134570000 40.5869100000
78        5   4  0.05999999999999999778 27.4754330000 10.2819650000 40.4671140000
79        5   4  0.05999999999999999778 28.0857640000  9.3576780000 39.0749850000
80        5   4  0.05999999999999999778 30.0002000000 13.0923090000 40.2405160000
81        5   4  0.05999999999999999778 28.6679440000 12.4283840000 41.1941840000
82        5   4  0.05999999999999999778 30.2594200000 11.6376900000 41.2303440000
83        5   4  0.17869999999999999774 32.0032790000 11.9323510000 37.0366250000
84        5   4  0.17869999999999999774 30.4231220000 12.7676850000 37.1609060000
85        5   4  0.17869999999999999774 31.6215110000 12.8768730000 38.5104340000
86        6   1  0.94079999999999996962 29.6097430000 27.9553980000  5.8380430000
87        6   2 -0.53000000000000002665 30.3257070000 26.8976210000  6.5820900000
88        6   2 -0.53000000000000002665 29.9137660000 29.3788280000  6.0864680000
89        6   3 -0.39129999999999998117 27.8030830000 27.6926460000  6.1036040000
90        6   3 -0.04390000000000000152 27.5474750000 27.7713590000  7.6120560000
91        6   3 -0.04390000000000000152 26.9789730000 28.7039050000  5.3061200000
92        6   3 -0.47649999999999997913 29.8742390000 27.6347030000  4.0727530000
93        6   4  0.17869999999999999774 27.6323480000 26.6697480000  5.7462270000
94        6   4  0.05999999999999999778 27.7656560000 28.7767590000  7.9884260000
95        6   4  0.05999999999999999778 26.4912040000 27.5519960000  7.8059810000
96        6   4  0.05999999999999999778 28.1611970000 27.0510620000  8.1595650000
97        6   4  0.05999999999999999778 27.1205350000 28.6017400000  4.2246670000
98        6   4  0.05999999999999999778 25.9156770000 28.5457790000  5.5170960000
99        6   4  0.05999999999999999778 27.2420010000 29.7263620000  5.5970160000
100       6   4  0.17869999999999999774 30.9555660000 27.6923860000  3.9274280000
101       6   4  0.17869999999999999774 29.5147240000 26.6319360000  3.8297400000
102       6   4  0.17869999999999999774 29.3720810000 28.3997040000  3.4776970000
103       7   1  0.94079999999999996962 40.6275220000 23.3546930000 47.1622050000
104       7   2 -0.53000000000000002665 41.1165880000 24.6856640000 47.5798540000
105       7   2 -0.53000000000000002665 40.9683340000 22.1533550000 47.9501980000
106       7   3 -0.39129999999999998117 41.1785430000 23.0835390000 45.4225400000
107       7   3 -0.04390000000000000152 42.7081020000 23.1686720000 45.4099130000
108       7   3 -0.04390000000000000152 40.6513420000 21.7542630000 44.8813680000
109       7   3 -0.47649999999999997913 38.8193320000 23.4586690000 47.0689900000
110       7   4  0.17869999999999999774 40.7501860000 23.9333910000 44.8771490000
111       7   4  0.05999999999999999778 43.1448020000 22.3529170000 45.9963630000
112       7   4  0.05999999999999999778 43.0610980000 23.0778890000 44.3761880000
113       7   4  0.05999999999999999778 43.0588150000 24.1205230000 45.8176260000
114       7   4  0.05999999999999999778 39.5572560000 21.7232010000 44.8363360000
115       7   4  0.05999999999999999778 41.0287780000 21.6065770000 43.8636040000
116       7   4  0.05999999999999999778 40.9982970000 20.9229100000 45.5040210000
117       7   4  0.17869999999999999774 38.4922660000 23.7164820000 48.0790780000
118       7   4  0.17869999999999999774 38.5383680000 24.2492400000 46.3690570000
119       7   4  0.17869999999999999774 38.4071430000 22.4919430000 46.7739950000
120       8   1  0.94079999999999996962 23.3376690000 23.3737350000 35.1342680000
121       8   2 -0.53000000000000002665 22.9124960000 22.6387990000 33.9242270000
122       8   2 -0.53000000000000002665 24.7723520000 23.5761170000 35.4189150000
123       8   3 -0.39129999999999998117 22.5696540000 22.5371950000 36.5882050000
124       8   3 -0.04390000000000000152 23.0591210000 21.0855150000 36.5904290000
125       8   3 -0.04390000000000000152 22.8985060000 23.2787920000 37.8842280000
126       8   3 -0.47649999999999997913 22.5528780000 25.0073070000 35.0664750000
127       8   4  0.17869999999999999774 21.4948550000 22.5712250000 36.3717780000
128       8   4  0.05999999999999999778 24.1415160000 21.0435330000 36.7539690000
129       8   4  0.05999999999999999778 22.5656470000 20.5447770000 37.4062240000
130       8   4  0.05999999999999999778 22.8272450000 20.5840850000 35.6470040000
131       8   4  0.05999999999999999778 22.4930990000 24.2963360000 37.9005660000
132       8   4  0.05999999999999999778 22.4619140000 22.7350030000 38.7290920000
133       8   4  0.05999999999999999778 23.9825390000 23.3331240000 38.0296270000
134       8   4  0.17869999999999999774 22.9300470000 25.4713560000 34.1520800000
135       8   4  0.17869999999999999774 21.4687070000 24.8852490000 35.0071180000
136       8   4  0.17869999999999999774 22.8465720000 25.5960960000 35.9374240000
137       9   1  0.94079999999999996962 42.5423940000 28.6583410000 23.8762440000
138       9   2 -0.53000000000000002665 43.1389810000 27.9373490000 25.0205150000
139       9   2 -0.53000000000000002665 41.5110980000 28.0102880000 23.0415260000
140       9   3 -0.39129999999999998117 43.9248270000 29.1949110000 22.7787240000
141       9   3 -0.04390000000000000152 44.6755110000 27.9333690000 22.3406110000
142       9   3 -0.04390000000000000152 43.4018070000 30.0165060000 21.6000730000
143       9   3 -0.47649999999999997913 41.8380910000 30.1975170000 24.5273550000
144       9   4  0.17869999999999999774 44.5601290000 29.8012670000 23.4359250000
145       9   4  0.05999999999999999778 44.0314350000 27.2949900000 21.7260190000
146       9   4  0.05999999999999999778 45.5444710000 28.2266940000 21.7403580000
147       9   4  0.05999999999999999778 45.0230630000 27.3558700000 23.2013960000
148       9   4  0.05999999999999999778 42.9194830000 30.9473120000 21.9178490000
149       9   4  0.05999999999999999778 44.2412900000 30.2842520000 20.9491560000
150       9   4  0.05999999999999999778 42.6824140000 29.4329360000 21.0159990000
151       9   4  0.17869999999999999774 41.0833000000 29.8855990000 25.2531060000
152       9   4  0.17869999999999999774 42.6232010000 30.7724280000 25.0242730000
153       9   4  0.17869999999999999774 41.3726750000 30.7635630000 23.7183670000
154      10   1  0.94079999999999996962 18.3414090000 17.4782300000 11.2298730000
155      10   2 -0.53000000000000002665 19.1116680000 17.8265260000 10.0172350000
156      10   2 -0.53000000000000002665 16.9085970000 17.1353400000 11.1309960000
157      10   3 -0.39129999999999998117 18.5232350000 18.8751550000 12.4211420000
158      10   3 -0.04390000000000000152 17.9839430000 20.1337720000 11.7341150000
159      10   3 -0.04390000000000000152 17.8145780000 18.5664280000 13.7403380000
160      10   3 -0.47649999999999997913 19.1901650000 16.0809510000 12.0149060000
161      10   4  0.17869999999999999774 19.6078070000 18.9591440000 12.5619940000
162      10   4  0.05999999999999999778 16.9097690000 20.0380530000 11.5415680000
163      10   4  0.05999999999999999778 18.1408130000 20.9945720000 12.3943040000
164      10   4  0.05999999999999999778 18.4948400000 20.3216430000 10.7859920000
165      10   4  0.05999999999999999778 18.2450270000 17.7011300000 14.2560800000
166      10   4  0.05999999999999999778 17.9079960000 19.4298560000 14.4080790000
167      10   4  0.05999999999999999778 16.7502630000 18.3751910000 13.5674630000
168      10   4  0.17869999999999999774 19.1718230000 15.2783770000 11.2737880000
169      10   4  0.17869999999999999774 20.2217010000 16.3637870000 12.2380320000
170      10   4  0.17869999999999999774 18.6505880000 15.7770660000 12.9137900000
171      11   1  0.94079999999999996962  0.8432860000 57.5700480000 14.4334440000
172      11   2 -0.53000000000000002665  0.0898400000 57.4114520000 15.6952950000
173      11   2 -0.53000000000000002665  0.1493840000 57.9809150000 13.1965180000
174      11   3 -0.39129999999999998117  1.7177800000 55.9786640000 14.1073480000
175      11   3 -0.04390000000000000152  0.6510780000 54.8832830000 14.0111920000
176      11   3 -0.04390000000000000152  2.5854670000 56.0771110000 12.8522740000
177      11   3 -0.47649999999999997913  2.1634250000 58.7723630000 14.7508120000
178      11   4  0.17869999999999999774  2.3308890000 55.8286660000 15.0044480000
179      11   4  0.05999999999999999778  0.0000240000 55.0535390000 13.1467690000
180      11   4  0.05999999999999999778  1.1467630000 53.9139460000 13.8842460000
181      11   4  0.05999999999999999778  0.0341240000 54.8459200000 14.9129800000
182      11   4  0.05999999999999999778  3.3843010000 56.8201770000 12.9509340000
183      11   4  0.05999999999999999778  3.0576670000 55.1063430000 12.6658600000
184      11   4  0.05999999999999999778  1.9727240000 56.3374480000 11.9827960000
185      11   4  0.17869999999999999774  1.6519710000 59.6932950000 15.0406640000
186      11   4  0.17869999999999999774  2.7885070000 58.4143480000 15.5723630000
187      11   4  0.17869999999999999774  2.7445270000 58.9336460000 13.8409820000
188      12   1  0.94079999999999996962 23.7055530000 29.4820510000 36.6638850000
189      12   2 -0.53000000000000002665 24.7684330000 28.5963070000 37.1843120000
190      12   2 -0.53000000000000002665 22.6878550000 28.9581990000 35.7310570000
191      12   3 -0.39129999999999998117 24.5303090000 30.9290870000 35.8705090000
192      12   3 -0.04390000000000000152 25.4297730000 30.3866570000 34.7553000000
193      12   3 -0.04390000000000000152 23.4992270000 31.9391240000 35.3660490000
194      12   3 -0.47649999999999997913 22.8363290000 30.1687960000 38.0998100000
195      12   4  0.17869999999999999774 25.1433650000 31.3539470000 36.6747760000
196      12   4  0.05999999999999999778 24.8290570000 29.9131690000 33.9710580000
197      12   4  0.05999999999999999778 25.9850420000 31.2197000000 34.3090380000
198      12   4  0.05999999999999999778 26.1451270000 29.6545020000 35.1393150000
199      12   4  0.05999999999999999778 22.9000510000 32.3683130000 36.1764830000
200      12   4  0.05999999999999999778 24.0196800000 32.7637450000 34.8668070000
201      12   4  0.05999999999999999778 22.8232760000 31.4681620000 34.6445870000
202      12   4  0.17869999999999999774 22.4267520000 29.3055490000 38.6296880000
203      12   4  0.17869999999999999774 23.5505530000 30.6969080000 38.7360720000
204      12   4  0.17869999999999999774 22.0298630000 30.8244170000 37.7662640000
205      13   1  0.94079999999999996962  7.6914930000 20.1455430000 10.0021040000
206      13   2 -0.53000000000000002665  7.2461660000 21.4041250000 10.6367350000
207      13   2 -0.53000000000000002665  8.6763970000 19.2770350000 10.6773510000
208      13   3 -0.39129999999999998117  8.3423110000 20.5696800000  8.3287470000
209      13   3 -0.04390000000000000152  9.4954710000 21.5589560000  8.5249880000
210      13   3 -0.04390000000000000152  8.7600900000 19.3110280000  7.5677990000
211      13   3 -0.47649999999999997913  6.2055050000 19.1543760000  9.6882960000
212      13   4  0.17869999999999999774  7.4976790000 21.0692540000  7.8386320000
213      13   4  0.05999999999999999778 10.3245260000 21.0838040000  9.0606980000
214      13   4  0.05999999999999999778  9.8590770000 21.8811850000  7.5424430000
215      13   4  0.05999999999999999778  9.1746190000 22.4405770000  9.0862810000
216      13   4  0.05999999999999999778  7.9184390000 18.6360890000  7.3778060000
217      13   4  0.05999999999999999778  9.1774960000 19.6008440000  6.5972870000
218      13   4  0.05999999999999999778  9.5269900000 18.7633790000  8.1256220000
219      13   4  0.17869999999999999774  5.7602660000 18.9820330000 10.6710350000
220      13   4  0.17869999999999999774  5.5179010000 19.7234630000  9.0580670000
221      13   4  0.17869999999999999774  6.4838380000 18.2044790000  9.2281780000
222      14   1  0.94079999999999996962  3.1936660000  9.8341510000 28.1409770000
223      14   2 -0.53000000000000002665  3.8080060000 10.9689380000 28.8620510000
224      14   2 -0.53000000000000002665  3.8538110000  8.5134260000 28.1271460000
225      14   3 -0.39129999999999998117  2.9257060000 10.3676100000 26.3953540000
226      14   3 -0.04390000000000000152  4.2934730000 10.7475690000 25.8193310000
227      14   3 -0.04390000000000000152  2.2228100000  9.2745250000 25.5898170000
228      14   3 -0.47649999999999997913  1.5279010000  9.6112010000 28.8225710000
229      14   4  0.17869999999999999774  2.2958040000 11.2607520000 26.4886840000
230      14   4  0.05999999999999999778  4.9486950000  9.8709800000 25.7707540000
231      14   4  0.05999999999999999778  4.1567680000 11.1329810000 24.8023720000
232      14   4  0.05999999999999999778  4.7815990000 11.5172790000 26.4230930000
233      14   4  0.05999999999999999778  1.2205000000  9.0504870000 25.9708650000
234      14   4  0.05999999999999999778  2.1154370000  9.6072310000 24.5516020000
235      14   4  0.05999999999999999778  2.8134360000  8.3524110000 25.5992290000
236      14   4  0.17869999999999999774  1.6764390000  9.3905990000 29.8822830000
237      14   4  0.17869999999999999774  0.9628440000 10.5391920000 28.7068500000
238      14   4  0.17869999999999999774  1.0341940000  8.7726390000 28.3280540000
239      15   1  0.94079999999999996962 22.4093210000 10.7343650000 25.4759420000
240      15   2 -0.53000000000000002665 22.3046990000  9.3236790000 25.9050360000
241      15   2 -0.53000000000000002665 21.4849240000 11.7499560000 26.0184940000
242      15   3 -0.39129999999999998117 22.2882010000 10.7633090000 23.6352700000
243      15   3 -0.04390000000000000152 20.9402630000 10.1413270000 23.2569060000
244      15   3 -0.04390000000000000152 22.4609960000 12.1838520000 23.0967660000
245      15   3 -0.47649999999999997913 24.1008730000 11.2765310000 25.8416750000
246      15   4  0.17869999999999999774 23.1078560000 10.1114380000 23.3090480000
247      15   4  0.05999999999999999778 20.1135480000 10.7590540000 23.6243870000
248      15   4  0.05999999999999999778 20.8689400000 10.0837000000 22.1646480000
249      15   4  0.05999999999999999778 20.8352830000  9.1339630000 23.6685430000
250      15   4  0.05999999999999999778 23.4497590000 12.5999520000 23.3186340000
251      15   4  0.05999999999999999778 22.3441430000 12.1710290000 22.0075950000
252      15   4  0.05999999999999999778 21.7002630000 12.8485800000 23.5194290000
253      15   4  0.17869999999999999774 24.2114830000 11.1684100000 26.9232440000
254      15   4  0.17869999999999999774 24.8090780000 10.6252390000 25.3238780000
255      15   4  0.17869999999999999774 24.2260140000 12.3214880000 25.5520470000
256      16   1  0.94079999999999996962 17.0582350000 17.9076900000 55.4167720000
257      16   2 -0.53000000000000002665 16.9807120000 18.6650990000 54.1497190000
258      16   2 -0.53000000000000002665 16.4488990000 16.5669150000 55.5232260000
259      16   3 -0.39129999999999998117 16.3485860000 18.9749690000 56.7437590000
260      16   3 -0.04390000000000000152 14.9036810000 19.2950960000 56.3478710000
261      16   3 -0.04390000000000000152 16.4556120000 18.2957890000 58.1094250000
262      16   3 -0.47649999999999997913 18.8160330000 17.7495410000 55.8341280000
263      16   4  0.17869999999999999774 16.9600480000 19.8846970000 56.7025480000
264      16   4  0.05999999999999999778 14.2961060000 18.3836250000 56.3352320000
265      16   4  0.05999999999999999778 14.4768160000 19.9841420000 57.0857310000
266      16   4  0.05999999999999999778 14.8539910000 19.7634370000 55.3612420000
267      16   4  0.05999999999999999778 17.4940480000 18.1247320000 58.4134130000
268      16   4  0.05999999999999999778 15.9906180000 18.9370820000 58.8661520000
269      16   4  0.05999999999999999778 15.9320650000 17.3339970000 58.1006550000
270      16   4  0.17869999999999999774 19.2625280000 17.2010000000 55.0013840000
271      16   4  0.17869999999999999774 19.2603180000 18.7448340000 55.9106140000
272      16   4  0.17869999999999999774 18.9275070000 17.1844570000 56.7613470000
273      17   1  0.94079999999999996962  8.7598810000 46.5717480000  1.6083660000
274      17   2 -0.53000000000000002665  9.7773940000 47.4802500000  2.1779220000
275      17   2 -0.53000000000000002665  8.1787820000 46.8422420000  0.2781570000
276      17   3 -0.39129999999999998117  7.3824860000 46.4485000000  2.8295020000
277      17   3 -0.04390000000000000152  6.8381070000 47.8637910000  3.0475860000
278      17   3 -0.04390000000000000152  6.3128780000 45.4657530000  2.3520800000
279      17   3 -0.47649999999999997913  9.4940490000 44.9140440000  1.5629550000
280      17   4  0.17869999999999999774  7.8736860000 46.0898210000  3.7423340000
281      17   4  0.05999999999999999778  6.3914030000 48.2516970000  2.1255930000
282      17   4  0.05999999999999999778  6.0613220000 47.8312080000  3.8202300000
283      17   4  0.05999999999999999778  7.6256980000 48.5495080000  3.3712240000
284      17   4  0.05999999999999999778  6.6943070000 44.4433100000  2.2564820000
285      17   4  0.05999999999999999778  5.4935020000 45.4466860000  3.0789710000
286      17   4  0.05999999999999999778  5.9099290000 45.7794410000  1.3833410000
287      17   4  0.17869999999999999774 10.3703790000 45.0037300000  0.9166430000
288      17   4  0.17869999999999999774  9.7984030000 44.6257800000  2.5719740000
289      17   4  0.17869999999999999774  8.7819640000 44.2047810000  1.1370890000
290      18   1  0.94079999999999996962 25.2768010000 48.1491210000 20.9900830000
291      18   2 -0.53000000000000002665 24.5617810000 49.1223860000 21.8424940000
292      18   2 -0.53000000000000002665 26.7468000000 48.2066940000 20.8632460000
293      18   3 -0.39129999999999998117 24.5438200000 48.2503180000 19.3000900000
294      18   3 -0.04390000000000000152 24.7234290000 49.6907680000 18.8103930000
295      18   3 -0.04390000000000000152 25.1775140000 47.2198000000 18.3650760000
296      18   3 -0.47649999999999997913 24.8392840000 46.4949030000 21.5910760000
297      18   4  0.17869999999999999774 23.4800020000 48.0386410000 19.4634130000
298      18   4  0.05999999999999999778 25.7863390000 49.9290510000 18.6940730000
299      18   4  0.05999999999999999778 24.2368900000 49.7980520000 17.8340710000
300      18   4  0.05999999999999999778 24.2772570000 50.4075960000 19.5048970000
301      18   4  0.05999999999999999778 24.9933690000 46.1895500000 18.6886390000
302      18   4  0.05999999999999999778 24.7492400000 47.3335820000 17.3632030000
303      18   4  0.05999999999999999778 26.2593600000 47.3765010000 18.2996840000
304      18   4  0.17869999999999999774 25.1848540000 46.4630960000 22.6270710000
305      18   4  0.17869999999999999774 23.7543400000 46.3714810000 21.5521940000
306      18   4  0.17869999999999999774 25.3541490000 45.7368440000 20.9979980000
307      19   1  0.94079999999999996962 26.0606720000 29.4286070000 45.8563360000
308      19   2 -0.53000000000000002665 25.7872090000 29.3344170000 44.4066980000
309      19   2 -0.53000000000000002665 25.3298910000 30.4022920000 46.6919170000
310      19   3 -0.39129999999999998117 27.8692090000 29.7308980000 46.0597940000
311      19   3 -0.04390000000000000152 28.2000670000 31.0322610000 45.3222680000
312      19   3 -0.04390000000000000152 28.2556390000 29.7694060000 47.5386360000
313      19   3 -0.47649999999999997913 25.7805180000 27.7797900000 46.5577390000
314      19   4  0.17869999999999999774 28.3356620000 28.8799310000 45.5484550000
315      19   4  0.05999999999999999778 27.6960500000 31.8824190000 45.7947960000
316      19   4  0.05999999999999999778 29.2817960000 31.2028310000 45.3692090000
317      19   4  0.05999999999999999778 27.8980610000 30.9846900000 44.2726120000
318      19   4  0.05999999999999999778 28.0726140000 28.8157940000 48.0457300000
319      19   4  0.05999999999999999778 29.3253640000 29.9896600000 47.6240140000
320      19   4  0.05999999999999999778 27.6972540000 30.5541200000 48.0598390000
321      19   4  0.17869999999999999774 24.7315210000 27.5530880000 46.3529750000
322      19   4  0.17869999999999999774 26.4270950000 27.0577820000 46.0532690000
323      19   4  0.17869999999999999774 25.9591880000 27.7996890000 47.6343830000
324      20   1  0.94079999999999996962 58.7636450000 11.6763100000 43.0675510000
325      20   2 -0.53000000000000002665 60.0000000000 11.2675340000 42.3679580000
326      20   2 -0.53000000000000002665 57.5071410000 10.9288730000 42.8605880000
327      20   3 -0.39129999999999998117 58.4580970000 13.4496240000 42.6606380000
328      20   3 -0.04390000000000000152 58.3226840000 13.5515650000 41.1380650000
329      20   3 -0.04390000000000000152 57.2318800000 13.9794030000 43.4046210000