Generated by pymatgen.io.lammps.data.LammpsData

16754  atoms
16021  bonds
28882  angles
30159  dihedrals

   17  atom types
   18  bond types
   30  angle types
   28  dihedral types

-0.2500000000 60.2500000000  xlo xhi
-0.2500000000 60.2500000000  ylo yhi
-0.2500000000 60.2500000000  zlo zhi

Masses

1   18.998403
2   15.999400
3   12.010700
4   12.010700
5    1.007940
6   14.010000
7   32.060000
8   16.000000
9   12.010000
10  19.000000
11  16.000000
12  12.010000
13  12.010000
14   1.008000
15  32.060000
16  32.060000
17   6.941000

Pair Coeffs

1     0.0610  2.940000
2     0.1400  2.900000
3     0.0660  3.500000
4     0.0660  3.500000
5     0.0300  2.500000
6       0.17  3.249999
7       0.25  3.549340
8       0.21  2.959566
9      0.066  3.499450
10     0.053  2.948875
11      0.14  2.900000
12     0.066  3.500000
13     0.066  3.500000
14      0.03  2.500000
15  0.344001  3.590322
16  0.344001  3.590322
17  0.165057  1.506000

Bond Coeffs

1   367.00  1.332
2   320.00  1.410
3   320.00  1.410
4   268.00  1.529
5   340.00  1.090
6   268.00  1.529
7   340.00  1.090
8   441.80  1.323
9   235.40  1.818
10  637.10  1.442
11  372.00  1.570
12  320.00  1.410
13  320.00  1.380
14  268.00  1.529
15  340.00  1.090
16  340.00  1.090
17  157.87  2.133
18  154.36  2.117


Angle Coeffs

1    60.00  109.50
2    60.00  109.50
3    50.00  109.50
4    35.00  109.50
5    37.50  110.70
6    33.00  107.80
7    58.35  112.70
8    50.00  109.50
9    35.00  109.50
10   37.50  110.70
11   33.00  107.80
12   77.00  109.10
13   50.00  109.50
14   93.30  107.10
15   82.90  111.80
16  104.00  102.60
17  115.80  118.50
18   94.30  113.60
19   97.50  100.20
20   80.20  125.60
21   60.00  109.50
22   50.00  109.50
23   35.00  109.50
24   37.50  110.70
25   33.00  107.80
26   92.60  111.55
27   35.00  109.50
28   33.00  109.50
29   73.56  112.74
30   73.56  112.74


Dihedral Coeffs

1 3 0.062500000 1 0.000000000 -0.011000000 2 180.000000000 0.280500000 3 0.000000000
2 3 0.062500000 1 0.000000000 -0.011000000 2 180.000000000 0.280500000 3 0.000000000
3 1 0.370500000 3 0.000000000
4 1 0.370500000 3 0.000000000
5 3 0.062500000 1 0.000000000 -0.011000000 2 180.000000000 0.280500000 3 0.000000000
6 1 0.370500000 3 0.000000000
7 3 0.627500000 1 0.000000000 -0.309500000 2 180.000000000 0.273000000 3 0.000000000
8 1 0.234000000 3 0.000000000
9 1 0.150000000 3 0.000000000
10 1 0.150000000 3 0.000000000
11 2 0.518500000 1 0.000000000 -0.728500000 2 180.000000000
12 2 0.518500000 1 0.000000000 -0.728500000 2 180.000000000
13 1 0.032000000 3 0.000000000
14 1 0.173400000 3 0.000000000
15 1 0.158000000 3 0.000000000
16 1 -0.001800000 3 0.000000000
17 3 3.916460000 1 0.000000000 -1.245000000 2 180.000000000 -0.381800000 3 0.000000000
18 3 0.062500000 1 0.000000000 -0.011000000 2 180.000000000 0.280500000 3 0.000000000
19 3 0.062500000 1 0.000000000 -0.011000000 2 180.000000000 0.280500000 3 0.000000000
20 1 0.370500000 3 0.000000000
21 1 0.370500000 3 0.000000000
22 3 -0.533500000 1 0.000000000 -0.783500000 2 180.000000000 0.337500000 3 0.000000000
23 1 0.370500000 3 0.000000000
24 3 1.119000000 1 0.000000000 -1.163500000 2 180.000000000 -0.341500000 3 0.000000000
25 1 0.234000000 3 0.000000000
26 1 0.150000000 3 0.000000000
27 4 5.431700000 1 0.000000000 -3.590000000 2 180.000000000 1.055600000 3 0.000000000 0.058320000 4 180.000000000
28 4 5.431700000 1 0.000000000 -3.590000000 2 180.000000000 1.055600000 3 0.000000000 0.058320000 4 180.000000000


Atoms

1         1   1 -0.20569999999999999396 -0.0000010000 57.4265210000 46.2245280000
2         1   1 -0.20569999999999999396  2.0397470000 57.5819460000 45.4720170000
3         1   1 -0.20569999999999999396  1.2719520000 59.0874290000 46.8599020000
4         1   2 -0.42249999999999998668  1.6950960000 55.5800970000 47.5886330000
5         1   3  0.14000000000000001332  2.8395480000 54.9778030000 46.9611680000
6         1   3 -0.11999999999999999556  2.5956860000 53.4774710000 46.8789440000
7         1   4  0.14230000000000000981  1.7586610000 56.9660810000 47.7778690000
8         1   3 -0.17999999999999999334  1.4069680000 53.1124380000 45.9809850000
9         1   3  0.53229999999999999538  1.2616000000 57.7602300000 46.5703770000
10        1   5  0.02999999999999999889  2.9867060000 55.3995460000 45.9576000000
11        1   5  0.02999999999999999889  3.7348110000 55.1984520000 47.5643260000
12        1   5  0.05999999999999999778  3.5154180000 53.0105060000 46.5002370000
13        1   5  0.05999999999999999778  2.4353780000 53.0935110000 47.8942810000
14        1   5  0.08250000000000000389  2.7757020000 57.3173410000 48.0079050000
15        1   5  0.08250000000000000389  1.0991850000 57.2203730000 48.6134950000
16        1   5  0.05999999999999999778  1.5653300000 53.4713640000 44.9554750000
17        1   5  0.05999999999999999778  1.2672300000 52.0259380000 45.9383060000
18        1   5  0.05999999999999999778  0.4839010000 53.5639410000 46.3564060000
19        2   1 -0.20569999999999999396 40.2571670000 31.4721610000 17.5914190000
20        2   1 -0.20569999999999999396 40.5464520000 29.3135330000 17.5040100000
21        2   1 -0.20569999999999999396 39.1477480000 30.2826460000 16.1304530000
22        2   2 -0.42249999999999998668 42.7058820000 30.8609860000 16.2596240000
23        2   3  0.14000000000000001332 43.4850160000 29.6957130000 16.5779500000
24        2   3 -0.11999999999999999556 44.8220020000 30.1620560000 17.1367160000
25        2   4  0.14230000000000000981 41.4453820000 30.6208750000 15.6990080000
26        2   3 -0.17999999999999999334 44.6842750000 30.9265450000 18.4592960000
27        2   3  0.53229999999999999538 40.3502470000 30.4232610000 16.7465800000
28        2   5  0.02999999999999999889 42.9553240000 29.0756570000 17.3139030000
29        2   5  0.02999999999999999889 43.6275470000 29.1003280000 15.6618810000
30        2   5  0.05999999999999999778 45.4534910000 29.2735910000 17.2753960000
31        2   5  0.05999999999999999778 45.3143400000 30.7915600000 16.3848120000
32        2   5  0.08250000000000000389 41.4343150000 29.7399540000 15.0398200000
33        2   5  0.08250000000000000389 41.1652330000 31.5031290000 15.1150660000
34        2   5  0.05999999999999999778 44.2133270000 30.2993360000 19.2276670000
35        2   5  0.05999999999999999778 45.6655790000 31.2382020000 18.8357840000
36        2   5  0.05999999999999999778 44.0659190000 31.8195570000 18.3288520000
37        3   1 -0.20569999999999999396 44.3405460000 43.9400490000 20.8020320000
38        3   1 -0.20569999999999999396 46.3447470000 43.7240050000 21.6311900000
39        3   1 -0.20569999999999999396 45.7322760000 42.4991000000 19.9262850000
40        3   2 -0.42249999999999998668 45.9992740000 46.0963210000 19.9403290000
41        3   3  0.14000000000000001332 47.0755600000 46.6080510000 20.7440590000
42        3   3 -0.11999999999999999556 46.7460190000 48.0485830000 21.1094320000
43        3   4  0.14230000000000000981 46.1482120000 44.7815170000 19.4821690000
44        3   3 -0.17999999999999999334 45.4948850000 48.1721870000 21.9880750000
45        3   3  0.53229999999999999538 45.6345110000 43.7383830000 20.4740160000
46        3   5  0.02999999999999999889 47.1942670000 45.9985050000 21.6501670000
47        3   5  0.02999999999999999889 48.0111320000 46.5532360000 20.1646800000
48        3   5  0.05999999999999999778 47.6183020000 48.4685760000 21.6291530000
49        3   5  0.05999999999999999778 46.6168680000 48.6229810000 20.1834620000
50        3   5  0.08250000000000000389 47.1933630000 44.5286060000 19.2489990000
51        3   5  0.08250000000000000389 45.5470900000 44.6734500000 18.5739730000
52        3   5  0.05999999999999999778 45.6202050000 47.6201340000 22.9288770000
53        3   5  0.05999999999999999778 45.2938560000 49.2203980000 22.2384210000
54        3   5  0.05999999999999999778 44.6182610000 47.7665100000 21.4744530000
55        4   1 -0.20569999999999999396 30.3660440000 11.4362350000 33.6809840000
56        4   1 -0.20569999999999999396 31.4782880000 10.8632330000 35.4658040000
57        4   1 -0.20569999999999999396 31.7036480000  9.7077610000 33.6228960000
58        4   2 -0.42249999999999998668 32.5975800000 13.1761540000 34.0502380000
59        4   3  0.14000000000000001332 33.1142280000 13.4994380000 35.3520830000
60        4   3 -0.11999999999999999556 32.9189160000 14.9920540000 35.5783110000
61        4   4  0.14230000000000000981 32.7230440000 11.8383460000 33.6561120000
62        4   3 -0.17999999999999999334 31.4417770000 15.4031800000 35.6191100000
63        4   3  0.53229999999999999538 31.5549810000 10.9655730000 34.1140140000
64        4   5  0.02999999999999999889 32.5870840000 12.9209520000 36.1228890000
65        4   5  0.02999999999999999889 34.1825630000 13.2324080000 35.3886490000
66        4   5  0.05999999999999999778 33.4122560000 15.2531310000 36.5247960000
67        4   5  0.05999999999999999778 33.4420330000 15.5373030000 34.7826440000
68        4   5  0.08250000000000000389 33.6484230000 11.3715390000 34.0254890000
69        4   5  0.08250000000000000389 32.7252040000 11.8105620000 32.5620060000
70        4   5  0.05999999999999999778 30.9115390000 14.8812510000 36.4265850000
71        4   5  0.05999999999999999778 31.3396090000 16.4808410000 35.7924340000
72        4   5  0.05999999999999999778 30.9442550000 15.1572630000 34.6763230000
73        5   1 -0.20569999999999999396 48.0992580000 37.3813110000 29.0183250000
74        5   1 -0.20569999999999999396 48.2954100000 37.6347120000 26.8623300000
75        5   1 -0.20569999999999999396 49.7653040000 38.5399990000 28.2047450000
76        5   2 -0.42249999999999998668 49.1506370000 35.0043630000 27.8401330000
77        5   3  0.14000000000000001332 48.8163780000 34.5952210000 26.5033020000
78        5   3 -0.11999999999999999556 48.0635700000 33.2749860000 26.5898130000
79        5   4  0.14230000000000000981 49.8803470000 36.1942080000 27.9523650000
80        5   3 -0.17999999999999999334 46.7201650000 33.3985070000 27.3196320000
81        5   3  0.53229999999999999538 48.9946820000 37.4384360000 28.0095830000
82        5   5  0.02999999999999999889 48.1965700000 35.3607270000 26.0169800000
83        5   5  0.02999999999999999889 49.7453970000 34.4810760000 25.9220320000
84        5   5  0.05999999999999999778 47.9069650000 32.9127210000 25.5643280000
85        5   5  0.05999999999999999778 48.7032270000 32.5406680000 27.0954320000
86        5   5  0.08250000000000000389 50.5937630000 36.3346600000 27.1265420000
87        5   5  0.08250000000000000389 50.4338610000 36.1596280000 28.8959060000
88        5   5  0.05999999999999999778 46.0613640000 34.1140460000 26.8101600000
89        5   5  0.05999999999999999778 46.2029830000 32.4325220000 27.3546760000
90        5   5  0.05999999999999999778 46.8666590000 33.7481930000 28.3458430000
91        6   1 -0.20569999999999999396 28.1442600000 38.6969350000  6.2315340000
92        6   1 -0.20569999999999999396 27.2957790000 36.6950370000  6.3847810000
93        6   1 -0.20569999999999999396 26.6489590000 38.2620630000  7.7661810000
94        6   2 -0.42249999999999998668 26.1929380000 38.2965290000  4.1881450000
95        6   3  0.14000000000000001332 25.9375200000 37.0053590000  3.6103190000
96        6   3 -0.11999999999999999556 26.3171690000 37.0657450000  2.1374150000
97        6   4  0.14230000000000000981 25.8691460000 38.4362640000  5.5432970000
98        6   3 -0.17999999999999999334 27.8139150000 37.3163100000  1.9147130000
99        6   3  0.53229999999999999538 27.0037540000 38.0178210000  6.4778270000
100       6   5  0.02999999999999999889 26.5257820000 36.2357620000  4.1283320000
101       6   5  0.02999999999999999889 24.8691540000 36.7648740000  3.7317350000
102       6   5  0.05999999999999999778 26.0186490000 36.1137950000  1.6769160000
103       6   5  0.05999999999999999778 25.7253370000 37.8545640000  1.6562360000
104       6   5  0.08250000000000000389 24.9767910000 37.8592510000  5.8286610000
105       6   5  0.08250000000000000389 25.6804180000 39.4972140000  5.7346370000
106       6   5  0.05999999999999999778 28.4170590000 36.5209830000  2.3721500000
107       6   5  0.05999999999999999778 28.0516040000 37.3443640000  0.8448770000
108       6   5  0.05999999999999999778 28.1186820000 38.2678370000  2.3603190000
109       7   1 -0.20569999999999999396 54.4199510000 14.4594640000 46.5883040000
110       7   1 -0.20569999999999999396 54.1113030000 14.6686690000 48.7358540000
111       7   1 -0.20569999999999999396 52.6615230000 15.5207190000 47.3378690000
112       7   2 -0.42249999999999998668 53.4363450000 12.0147690000 47.6834780000
113       7   3  0.14000000000000001332 53.7283710000 11.6017060000 49.0289670000
114       7   3 -0.11999999999999999556 54.5500930000 10.3221410000 48.9603230000
115       7   4  0.14230000000000000981 52.6534850000 13.1684140000 47.5529540000
116       7   3 -0.17999999999999999334 55.9180000000 10.5239470000 48.2964440000
117       7   3  0.53229999999999999538 53.4768890000 14.4559630000 47.5543420000
118       7   5  0.02999999999999999889 54.2854690000 12.3893530000 49.5542530000
119       7   5  0.02999999999999999889 52.7803020000 11.4322530000 49.5641590000
120       7   5  0.05999999999999999778 54.6769820000  9.9519630000 49.9870890000
121       7   5  0.05999999999999999778 53.9725160000  9.5649560000 48.4152470000
122       7   5  0.08250000000000000389 51.8962910000 13.2600840000 48.3460030000
123       7   5  0.08250000000000000389 52.1468550000 13.1212230000 46.5839620000
124       7   5  0.05999999999999999778 56.5154470000 11.2632720000 48.8460200000
125       7   5  0.05999999999999999778 56.4843720000  9.5855980000 48.2728510000
126       7   5  0.05999999999999999778 55.8018690000 10.8820790000 47.2692610000
127       8   1 -0.20569999999999999396 23.0525450000 23.0205830000 29.6266050000
128       8   1 -0.20569999999999999396 22.9466410000 24.7569990000 28.3133470000
129       8   1 -0.20569999999999999396 21.4240520000 23.1931510000 28.1780160000
130       8   2 -0.42249999999999998668 22.0462860000 25.2756590000 31.0568120000
131       8   3  0.14000000000000001332 22.4349800000 26.6230930000 30.7412490000
132       8   3 -0.11999999999999999556 23.1809100000 27.1906260000 31.9407160000
133       8   4  0.14230000000000000981 21.3149170000 24.6020640000 30.0708240000
134       8   3 -0.17999999999999999334 24.4930780000 26.4524240000 32.2338090000
135       8   3  0.53229999999999999538 22.1999190000 23.8920970000 29.0468620000
136       8   5  0.02999999999999999889 23.0759830000 26.6330870000 29.8492370000
137       8   5  0.02999999999999999889 21.5306870000 27.2141130000 30.5246150000
138       8   5  0.05999999999999999778 23.3792630000 28.2522260000 31.7381280000
139       8   5  0.05999999999999999778 22.5193370000 27.1489080000 32.8151370000
140       8   5  0.08250000000000000389 20.6367080000 25.2674350000 29.5158580000
141       8   5  0.08250000000000000389 20.7226120000 23.8257770000 30.5651910000
142       8   5  0.05999999999999999778 25.1739030000 26.5063010000 31.3740700000
143       8   5  0.05999999999999999778 25.0064300000 26.8931920000 33.0963780000
144       8   5  0.05999999999999999778 24.3047730000 25.3962140000 32.4478430000
145       9   1 -0.20569999999999999396 34.9984490000 44.1771370000 46.0353450000
146       9   1 -0.20569999999999999396 36.7730110000 45.2299460000 46.7378580000
147       9   1 -0.20569999999999999396 35.0917140000 44.8998190000 48.0967070000
148       9   2 -0.42249999999999998668 37.0971810000 42.3190800000 46.5704790000
149       9   3  0.14000000000000001332 38.4849750000 42.6600910000 46.4156220000
150       9   3 -0.11999999999999999556 39.0634040000 41.7871490000 45.3108060000
151       9   4  0.14230000000000000981 36.4054610000 43.0073870000 47.5747500000
152       9   3 -0.17999999999999999334 38.4285050000 42.0563840000 43.9407530000
153       9   3  0.53229999999999999538 35.8173910000 44.3346820000 47.0970050000
154       9   5  0.02999999999999999889 38.5871830000 43.7234000000 46.1595040000
155       9   5  0.02999999999999999889 39.0050430000 42.4822600000 47.3705500000
156       9   5  0.05999999999999999778 40.1456420000 41.9730840000 45.2711940000
157       9   5  0.05999999999999999778 38.9285940000 40.7347200000 45.5905420000
158       9   5  0.08250000000000000389 37.0330770000 43.2215120000 48.4527710000
159       9   5  0.08250000000000000389 35.5612970000 42.3846100000 47.8868090000
160       9   5  0.05999999999999999778 38.5764490000 43.1015220000 43.6384710000
161       9   5  0.05999999999999999778 38.8749870000 41.4177310000 43.1696440000
162       9   5  0.05999999999999999778 37.3520110000 41.8632110000 43.9671140000
163      10   1 -0.20569999999999999396 54.2866870000  6.0834320000 52.5999340000
164      10   1 -0.20569999999999999396 56.3331670000  5.3356650000 52.6612860000
165      10   1 -0.20569999999999999396 55.9177400000  7.3071170000 51.8109850000
166      10   2 -0.42249999999999998668 55.3470720000  6.3345550000 55.2373450000
167      10   3  0.14000000000000001332 56.3228580000  5.4202700000 55.7647590000
168      10   3 -0.11999999999999999556 55.6923530000  4.6853850000 56.9393370000
169      10   4  0.14230000000000000981 55.7675270000  7.1259360000 54.1613630000
170      10   3 -0.17999999999999999334 54.5022500000  3.8093870000 56.5283480000
171      10   3  0.53229999999999999538 55.5698610000  6.4493630000 52.8052820000
172      10   5  0.02999999999999999889 56.6339560000  4.7089110000 54.9876780000
173      10   5  0.02999999999999999889 57.2088230000  5.9904590000 56.0871460000
174      10   5  0.05999999999999999778 56.4739710000  4.0699050000 57.4058540000
175      10   5  0.05999999999999999778 55.3780250000  5.4252830000 57.6861840000
176      10   5  0.08250000000000000389 56.8266830000  7.4148590000 54.2347420000
177      10   5  0.08250000000000000389 55.1535820000  8.0319350000 54.1522540000
178      10   5  0.05999999999999999778 54.8085980000  3.0492510000 55.7976490000
179      10   5  0.05999999999999999778 54.0801580000  3.2894830000 57.3963180000
180      10   5  0.05999999999999999778 53.7134800000  4.4151880000 56.0726100000
181      11   1 -0.20569999999999999396 43.0096140000 11.2914150000 26.3885310000
182      11   1 -0.20569999999999999396 43.8798880000 13.0365570000 25.4148240000
183      11   1 -0.20569999999999999396 45.0167920000 11.1720430000 25.5299470000
184      11   2 -0.42249999999999998668 41.8930970000 11.6232710000 23.7834050000
185      11   3  0.14000000000000001332 41.7365990000 12.9147530000 23.1719940000
186      11   3 -0.11999999999999999556 40.2476940000 13.1672780000 22.9806300000
187      11   4  0.14230000000000000981 43.2112030000 11.2070390000 24.0073530000
188      11   3 -0.17999999999999999334 39.4800940000 13.2546890000 24.3056870000
189      11   3  0.53229999999999999538 43.7722810000 11.6847360000 25.3462990000
190      11   5  0.02999999999999999889 42.1800780000 13.6916230000 23.8095440000
191      11   5  0.02999999999999999889 42.2637830000 12.9180020000 22.2044990000
192      11   5  0.05999999999999999778 40.1382460000 14.1033400000 22.4156610000
193      11   5  0.05999999999999999778 39.8348610000 12.3652030000 22.3559080000
194      11   5  0.08250000000000000389 43.9027150000 11.5440790000 23.2206590000
195      11   5  0.08250000000000000389 43.2161330000 10.1130090000 24.0376630000
196      11   5  0.05999999999999999778 39.8688140000 14.0690920000 24.9311650000
197      11   5  0.05999999999999999778 38.4150630000 13.4459210000 24.1297010000
198      11   5  0.05999999999999999778 39.5738980000 12.3226520000 24.8708060000
199      12   1 -0.20569999999999999396 38.9003430000 27.5007010000 57.7975050000
200      12   1 -0.20569999999999999396 39.4016430000 25.8590070000 56.4541730000
201      12   1 -0.20569999999999999396 37.6070860000 27.0550590000 56.0919050000
202      12   2 -0.42249999999999998668 40.9981810000 28.2830230000 56.0281930000
203      12   3  0.14000000000000001332 41.9585040000 27.3465080000 55.5115110000
204      12   3 -0.11999999999999999556 43.3302940000 27.7382280000 56.0425230000
205      12   4  0.14230000000000000981 39.6739390000 28.0940420000 55.6141000000
206      12   3 -0.17999999999999999334 43.4371720000 27.6223390000 57.5682280000
207      12   3  0.53229999999999999538 38.9004500000 27.1200340000 56.5022430000
208      12   5  0.02999999999999999889 41.7002790000 26.3265490000 55.8272200000
209      12   5  0.02999999999999999889 41.9373030000 27.3841560000 54.4105500000
210      12   5  0.05999999999999999778 44.0728860000 27.0883780000 55.5591680000
211      12   5  0.05999999999999999778 43.5475650000 28.7657050000 55.7245330000
212      12   5  0.08250000000000000389 39.6005460000 27.7267440000 54.5795090000
213      12   5  0.08250000000000000389 39.1604670000 29.0580140000 55.6844550000
214      12   5  0.05999999999999999778 43.2442900000 26.5929130000 57.8978570000
215      12   5  0.05999999999999999778 44.4392000000 27.9028850000 57.9132880000
216      12   5  0.05999999999999999778 42.7087370000 28.2745440000 58.0590040000
217      13   1 -0.20569999999999999396  1.1659640000 25.0137700000 11.5299280000
218      13   1 -0.20569999999999999396 -0.0000130000 23.7164600000 12.8370190000
219      13   1 -0.20569999999999999396  1.3601520000 22.8423340000 11.3645830000
220      13   2 -0.42249999999999998668  2.3293980000 24.9397150000 14.1346080000
221      13   3  0.14000000000000001332  1.5434000000 24.7528010000 15.3235190000
222      13   3 -0.11999999999999999556  1.6614150000 26.0135110000 16.1684510000
223      13   4  0.14230000000000000981  2.3638140000 23.8576930000 13.2464370000
224      13   3 -0.17999999999999999334  1.0665270000 27.2506790000 15.4842340000
225      13   3  0.53229999999999999538  1.2113710000 23.8681070000 12.2426730000
226      13   5  0.02999999999999999889  0.4943400000 24.5640700000 15.0579570000
227      13   5  0.02999999999999999889  1.9255800000 23.8756960000 15.8699670000
228      13   5  0.05999999999999999778  1.1503300000 25.8243920000 17.1226030000
229      13   5  0.05999999999999999778  2.7209000000 26.1811560000 16.3995790000
230      13   5  0.08250000000000000389  2.3448050000 22.8851070000 13.7606240000
231      13   5  0.08250000000000000389  3.2875340000 23.9319240000 12.6641340000
232      13   5  0.05999999999999999778  0.0000060000 27.1045350000 15.2680110000
233      13   5  0.05999999999999999778  1.1608630000 28.1357820000 16.1241760000
234      13   5  0.05999999999999999778  1.5766230000 27.4538500000 14.5379920000
235      14   1 -0.20569999999999999396  9.2604850000 38.5060880000 51.1349840000
236      14   1 -0.20569999999999999396  8.7275660000 39.1353530000 53.1526620000
237      14   1 -0.20569999999999999396  7.2258890000 39.1820000000 51.5636360000
238      14   2 -0.42249999999999998668  8.8769510000 36.2259260000 52.8074610000
239      14   3  0.14000000000000001332  9.1543680000 36.2504930000 54.2176660000
240      14   3 -0.11999999999999999556 10.2907250000 35.2750760000 54.4905790000
241      14   4  0.14230000000000000981  7.8282930000 37.0469020000 52.3748890000
242      14   3 -0.17999999999999999334 11.6058880000 35.6839930000 53.8154780000
243      14   3  0.53229999999999999538  8.2747790000 38.4735460000 52.0569020000
244      14   5  0.02999999999999999889  9.4346150000 37.2654550000 54.5306890000
245      14   5  0.02999999999999999889  8.2444370000 35.9578200000 54.7657070000
246      14   5  0.05999999999999999778 10.4249830000 35.2159280000 55.5795500000
247      14   5  0.05999999999999999778  9.9843480000 34.2778780000 54.1503420000
248      14   5  0.08250000000000000389  7.0101620000 37.1127630000 53.1076900000
249      14   5  0.08250000000000000389  7.4360880000 36.6261670000 51.4437590000
250      14   5  0.05999999999999999778 11.9357310000 36.6712500000 54.1649110000
251      14   5  0.05999999999999999778 12.4021900000 34.9650460000 54.0409790000
252      14   5  0.05999999999999999778 11.4852090000 35.7348580000 52.7293380000
253      15   1 -0.20569999999999999396  2.2543150000 46.6732290000  4.9070590000
254      15   1 -0.20569999999999999396  3.4107590000 47.9568220000  6.2359790000
255      15   1 -0.20569999999999999396  1.2331970000 47.8764020000  6.4202910000
256      15   2 -0.42249999999999998668  3.4898490000 45.1130640000  6.9522390000
257      15   3  0.14000000000000001332  4.7464560000 45.4793990000  7.5463590000
258      15   3 -0.11999999999999999556  5.7612510000 44.3972190000  7.2053250000
259      15   4  0.14230000000000000981  2.4214240000 45.9860670000  7.1912760000
260      15   3 -0.17999999999999999334  6.0433260000 44.2935480000  5.7012260000
261      15   3  0.53229999999999999538  2.3387220000 47.1256420000  6.1762350000
262      15   5  0.02999999999999999889  5.0778070000 46.4532030000  7.1608970000
263      15   5  0.02999999999999999889  4.6142730000 45.5652750000  8.6368330000
264      15   5  0.05999999999999999778  6.6875140000 44.6249910000  7.7507970000
265      15   5  0.05999999999999999778  5.3908920000 43.4379400000  7.5882740000
266      15   5  0.08250000000000000389  2.4586660000 46.4388270000  8.1934210000
267      15   5  0.08250000000000000389  1.4935920000 45.4134230000  7.0961370000
268      15   5  0.05999999999999999778  6.4365000000 45.2410100000  5.3096830000
269      15   5  0.05999999999999999778  6.7837750000 43.5120290000  5.4943520000
270      15   5  0.05999999999999999778  5.1285710000 44.0558650000  5.1502450000
271      16   1 -0.20569999999999999396  3.3342590000  6.7439200000 34.7597930000
272      16   1 -0.20569999999999999396  3.3171110000  7.1007580000 32.6095900000
273      16   1 -0.20569999999999999396  3.2408840000  8.7903430000 33.9958460000
274      16   2 -0.42249999999999998668  5.9634830000  6.4437440000 33.6918530000
275      16   3  0.14000000000000001332  6.2016500000  5.9819700000 32.3515980000
276      16   3 -0.11999999999999999556  6.9379100000  4.6523040000 32.4360690000
277      16   4  0.14230000000000000981  5.3177370000  7.6808040000 33.8080430000
278      16   3 -0.17999999999999999334  6.1052720000  3.5479600000 33.0992170000
279      16   3  0.53229999999999999538  3.7937890000  7.5662410000 33.7927200000
280      16   5  0.02999999999999999889  5.2491290000  5.8614410000 31.8178880000
281      16   5  0.02999999999999999889  6.8055060000  6.7328510000 31.8172610000
282      16   5  0.05999999999999999778  7.2135480000  4.3583490000 31.4138190000
283      16   5  0.05999999999999999778  7.8731320000  4.8054370000 32.9891910000
284      16   5  0.08250000000000000389  5.6036840000  8.3857310000 33.0130690000
285      16   5  0.08250000000000000389  5.5901560000  8.1108530000 34.7769040000
286      16   5  0.05999999999999999778  5.1763960000  3.3688370000 32.5418280000
287      16   5  0.05999999999999999778  6.6626310000  2.6045900000 33.1343750000
288      16   5  0.05999999999999999778  5.8351360000  3.8267360000 34.1220370000
289      17   1 -0.20569999999999999396 45.0664890000 16.2511850000 29.2522900000
290      17   1 -0.20569999999999999396 44.8382690000 14.8023360000 27.6399150000
291      17   1 -0.20569999999999999396 43.0686530000 15.6044490000 28.6435520000
292      17   2 -0.42249999999999998668 45.4465720000 17.5228260000 26.7260510000
293      17   3  0.14000000000000001332 45.9888800000 16.8297840000 25.5894610000
294      17   3 -0.11999999999999999556 47.3158370000 17.4830460000 25.2293800000
295      17   4  0.14230000000000000981 44.2006800000 17.0733960000 27.1805500000
296      17   3 -0.17999999999999999334 48.3733650000 17.3371100000 26.3307280000
297      17   3  0.53229999999999999538 44.3061950000 15.9263680000 28.1850250000
298      17   5  0.02999999999999999889 46.1348880000 15.7675270000 25.8281260000
299      17   5  0.02999999999999999889 45.2750430000 16.9020010000 24.7532770000
300      17   5  0.05999999999999999778 47.6719240000 17.0227770000 24.2973200000
301      17   5  0.05999999999999999778 47.1360170000 18.5440730000 25.0150930000
302      17   5  0.08250000000000000389 43.5462050000 16.7366500000 26.3626640000
303      17   5  0.08250000000000000389 43.7154320000 17.9038790000 27.7027360000
304      17   5  0.05999999999999999778 48.5794240000 16.2789110000 26.5388900000
305      17   5  0.05999999999999999778 49.3165140000 17.8103840000 26.0335500000
306      17   5  0.05999999999999999778 48.0324320000 17.8024020000 27.2603080000
307      18   1 -0.20569999999999999396 35.5338360000  6.3983820000 52.5702260000
308      18   1 -0.20569999999999999396 34.8215670000  6.4711820000 50.5114950000
309      18   1 -0.20569999999999999396 36.4276500000  7.8073940000 51.1574410000
310      18   2 -0.42249999999999998668 36.5940490000  4.2048320000 51.0843910000
311      18   3  0.14000000000000001332 35.8827450000  3.6002700000 49.9913250000
312      18   3 -0.11999999999999999556 35.5636350000  2.1623390000 50.3757080000
313      18   4  0.14230000000000000981 37.0002000000  5.5310880000 50.8923270000
314      18   3 -0.17999999999999999334 34.6156500000  2.0600700000 51.5771630000
315      18   3  0.53229999999999999538 35.9319270000  6.5494930000 51.2890950000
316      18   5  0.02999999999999999889 34.9589200000  4.1580710000 49.7862040000
317      18   5  0.02999999999999999889 36.5159210000  3.6354400000 49.0903070000
318      18   5  0.05999999999999999778 35.1186710000  1.6735420000 49.4979470000
319      18   5  0.05999999999999999778 36.5050150000  1.6411000000 50.5905270000
320      18   5  0.08250000000000000389 37.2859640000  5.7413920000 49.8507980000
321      18   5  0.08250000000000000389 37.8635080000  5.7138340000 51.5397440000
322      18   5  0.05999999999999999778 33.6602620000  2.5584920000 51.3664840000
323      18   5  0.05999999999999999778 34.4013240000  1.0125300000 51.8191470000