Generated by pymatgen.io.lammps.data.LammpsData

15497  atoms
14481  bonds
25391  angles
24387  dihedrals

   18  atom types
   17  bond types
   27  angle types
   21  dihedral types

-0.2500000000 60.2500000000  xlo xhi
-0.2500000000 60.2500000000  ylo yhi
-0.2500000000 60.2500000000  zlo zhi

Masses

1   30.973762
2   18.998403
3   15.999400
4   12.010700
5   12.010700
6    1.007940
7   14.010000
8   32.060000
9   16.000000
10  12.010000
11  19.000000
12  16.000000
13  12.010000
14  12.010000
15   1.008000
16  32.060000
17  32.060000
18   6.941000

Pair Coeffs

1     0.2000  3.740000
2     0.0610  2.940000
3     0.1400  2.900000
4     0.0660  3.500000
5     0.0620  3.250000
6     0.0300  2.500000
7       0.17  3.249999
8       0.25  3.549340
9       0.21  2.959566
10     0.066  3.499450
11     0.053  2.948875
12      0.14  2.900000
13     0.066  3.500000
14     0.066  3.500000
15      0.03  2.500000
16  0.344001  3.590322
17  0.344001  3.590322
18  0.165057  1.506000

Bond Coeffs

1   325.00  1.672
2   367.00  1.332
3   320.00  1.410
4   320.00  1.410
5   268.00  1.529
6   340.00  1.090
7   441.80  1.323
8   235.40  1.818
9   637.10  1.442
10  372.00  1.570
11  320.00  1.410
12  320.00  1.380
13  268.00  1.529
14  340.00  1.090
15  340.00  1.090
16  157.87  2.133
17  154.36  2.117


Angle Coeffs

1    45.00  102.60
2   100.00  120.50
3    50.00  109.50
4    50.00  109.50
5    35.00  109.50
6    35.00  109.50
7    37.50  110.70
8    33.00  107.80
9    77.00  109.10
10   50.00  109.50
11   93.30  107.10
12   82.90  111.80
13  104.00  102.60
14  115.80  118.50
15   94.30  113.60
16   97.50  100.20
17   80.20  125.60
18   60.00  109.50
19   50.00  109.50
20   35.00  109.50
21   37.50  110.70
22   33.00  107.80
23   92.60  111.55
24   35.00  109.50
25   33.00  109.50
26   73.56  112.74
27   73.56  112.74


Dihedral Coeffs

1 3 0.050500000 1 0.000000000 -1.307000000 2 180.000000000 0.915500000 3 0.000000000
2 3 -2.655500000 1 0.000000000 -0.223500000 2 180.000000000 0.241500000 3 0.000000000
3 1 0.030000000 3 0.000000000
4 2 0.518500000 1 0.000000000 -0.728500000 2 180.000000000
5 2 0.518500000 1 0.000000000 -0.728500000 2 180.000000000
6 1 0.032000000 3 0.000000000
7 1 0.173400000 3 0.000000000
8 1 0.158000000 3 0.000000000
9 1 -0.001800000 3 0.000000000
10 3 3.916460000 1 0.000000000 -1.245000000 2 180.000000000 -0.381800000 3 0.000000000
11 3 0.062500000 1 0.000000000 -0.011000000 2 180.000000000 0.280500000 3 0.000000000
12 3 0.062500000 1 0.000000000 -0.011000000 2 180.000000000 0.280500000 3 0.000000000
13 1 0.370500000 3 0.000000000
14 1 0.370500000 3 0.000000000
15 3 -0.533500000 1 0.000000000 -0.783500000 2 180.000000000 0.337500000 3 0.000000000
16 1 0.370500000 3 0.000000000
17 3 1.119000000 1 0.000000000 -1.163500000 2 180.000000000 -0.341500000 3 0.000000000
18 1 0.234000000 3 0.000000000
19 1 0.150000000 3 0.000000000
20 4 5.431700000 1 0.000000000 -3.590000000 2 180.000000000 1.055600000 3 0.000000000 0.058320000 4 180.000000000
21 4 5.431700000 1 0.000000000 -3.590000000 2 180.000000000 1.055600000 3 0.000000000 0.058320000 4 180.000000000


Atoms

1         1   1  0.93750000000000000000 57.5985960000 10.6766800000 34.0787360000
2         1   2 -0.20569999999999999396 58.9909920000  7.7383490000 35.5742120000
3         1   2 -0.20569999999999999396 57.0441960000  6.8212700000 35.9147650000
4         1   2 -0.20569999999999999396 58.3979620000  5.9737180000 34.4205120000
5         1   2 -0.20569999999999999396 56.4222540000  9.4735420000 31.3134220000
6         1   2 -0.20569999999999999396 54.4751800000 10.4423420000 31.4710860000
7         1   2 -0.20569999999999999396 55.8178850000 10.9630070000 29.8269230000
8         1   2 -0.20569999999999999396 59.9929510000 10.6823310000 36.2567150000
9         1   2 -0.20569999999999999396 59.3140040000 12.4856990000 37.2765530000
10        1   2 -0.20569999999999999396 59.3938850000 10.5900800000 38.3615430000
11        1   3 -0.53500000000000003109 56.8767330000  9.2146570000 34.4562690000
12        1   3 -0.53500000000000003109 56.3396670000 11.4868470000 33.3482730000
13        1   3 -0.53500000000000003109 57.3209280000 11.4150990000 35.5346180000
14        1   4  0.14230000000000000981 57.3530490000  8.0149380000 33.8714340000
15        1   4  0.14230000000000000981 56.4043050000 11.7679790000 31.9631640000
16        1   4  0.14230000000000000981 57.6695740000 10.8250700000 36.7762400000
17        1   5  0.53229999999999999538 57.9471600000  7.1312900000 34.9591450000
18        1   5  0.53229999999999999538 55.7623510000 10.6531720000 31.1433130000
19        1   5  0.53229999999999999538 59.1061340000 11.1561760000 37.1646440000
20        1   6  0.08250000000000000389 56.5171230000  7.4852580000 33.4068610000
21        1   6  0.08250000000000000389 58.1320000000  8.1877990000 33.1195840000
22        1   6  0.08250000000000000389 55.8434810000 12.6873820000 31.7814470000
23        1   6  0.08250000000000000389 57.4332310000 11.8930100000 31.6008980000
24        1   6  0.08250000000000000389 57.0081590000 11.2517410000 37.5340950000
25        1   6  0.08250000000000000389 57.5566580000  9.7374890000 36.7675640000
26        2   1  0.93750000000000000000 15.0437780000 16.0138430000  1.8199560000
27        2   2 -0.20569999999999999396 15.9753120000 12.5645110000  2.0281610000
28        2   2 -0.20569999999999999396 16.7452190000 12.5064540000 -0.0092140000
29        2   2 -0.20569999999999999396 18.1278790000 12.3611500000  1.6792630000
30        2   2 -0.20569999999999999396 17.9470110000 17.4379050000  1.6731050000
31        2   2 -0.20569999999999999396 17.4572540000 18.7475440000 -0.0000700000
32        2   2 -0.20569999999999999396 17.9392030000 19.6097450000  1.9496880000
33        2   2 -0.20569999999999999396 13.2027540000 13.6889450000  3.1168910000
34        2   2 -0.20569999999999999396 11.3216760000 14.5042980000  2.3753290000
35        2   2 -0.20569999999999999396 11.9792430000 12.5250010000  1.7219190000
36        2   3 -0.53500000000000003109 15.9845870000 15.0880870000  0.7908870000
37        2   3 -0.53500000000000003109 15.1425380000 17.5119950000  1.0984050000
38        2   3 -0.53500000000000003109 13.5875080000 15.6871700000  1.1026570000
39        2   4  0.14230000000000000981 17.1700520000 14.4764030000  1.2691650000
40        2   4  0.14230000000000000981 15.8411030000 18.5540470000  1.7525270000
41        2   4  0.14230000000000000981 13.1411770000 14.3686030000  0.8315830000
42        2   5  0.53229999999999999538 16.9995510000 12.9642050000  1.2359550000
43        2   5  0.53229999999999999538 17.3055370000 18.5887700000  1.3267560000
44        2   5  0.53229999999999999538 12.4034250000 13.7752520000  2.0265090000
45        2   6  0.08250000000000000389 18.0036650000 14.7498030000  0.6168590000
46        2   6  0.08250000000000000389 17.4107750000 14.7624030000  2.2997860000
47        2   6  0.08250000000000000389 15.3813290000 19.5006010000  1.4601420000
48        2   6  0.08250000000000000389 15.8179060000 18.4620320000  2.8463970000
49        2   6  0.08250000000000000389 12.4380700000 14.4302560000 -0.0025030000
50        2   6  0.08250000000000000389 13.9618300000 13.6970100000  0.5648420000
51        3   1  0.93750000000000000000 26.4196700000 58.1368300000 27.4907310000
52        3   2 -0.20569999999999999396 27.7937170000 56.6014030000 24.5643920000
53        3   2 -0.20569999999999999396 29.2018210000 58.2247580000 24.2052400000
54        3   2 -0.20569999999999999396 29.9398700000 56.2683440000 24.8467580000
55        3   2 -0.20569999999999999396 28.9194300000 57.9315430000 29.5370300000
56        3   2 -0.20569999999999999396 28.8075480000 60.0000000000 30.2178390000
57        3   2 -0.20569999999999999396 28.4534810000 58.3704290000 31.6307640000
58        3   2 -0.20569999999999999396 24.6692480000 56.7227230000 25.1641710000
59        3   2 -0.20569999999999999396 23.0381900000 58.1666300000 25.2533420000
60        3   2 -0.20569999999999999396 24.2004760000 57.9543600000 23.4145950000
61        3   3 -0.53500000000000003109 27.7932870000 58.5226100000 26.6158140000
62        3   3 -0.53500000000000003109 26.5014660000 59.2402200000 28.7359980000
63        3   3 -0.53500000000000003109 25.3664070000 59.0813020000 26.6301700000
64        3   4  0.14230000000000000981 28.8339870000 57.5717120000 26.4709990000
65        3   4  0.14230000000000000981 26.7533930000 58.7859450000 30.0520170000
66        3   4  0.14230000000000000981 25.2659990000 59.0312980000 25.2164050000
67        3   5  0.53229999999999999538 28.9418130000 57.1691880000 25.0070100000
68        3   5  0.53229999999999999538 28.2476560000 58.7853840000 30.3589880000
69        3   5  0.53229999999999999538 24.2805960000 57.9582920000 24.7671480000
70        3   6  0.08250000000000000389 29.7796800000 58.0242320000 26.7809220000
71        3   6  0.08250000000000000389 28.6624160000 56.6603760000 27.0557680000
72        3   6  0.08250000000000000389 26.2662500000 59.4765890000 30.7437900000
73        3   6  0.08250000000000000389 26.3796610000 57.7691830000 30.2311180000
74        3   6  0.08250000000000000389 24.8845000000 60.0000000000 24.8848390000
75        3   6  0.08250000000000000389 26.2292010000 58.8376190000 24.7364150000
76        4   1  0.93750000000000000000 29.8936960000 15.8800680000 41.4054370000
77        4   2 -0.20569999999999999396 31.4362920000 13.9449350000 43.9909080000
78        4   2 -0.20569999999999999396 30.1293310000 12.2300240000 43.6779250000
79        4   2 -0.20569999999999999396 32.2456440000 12.0952060000 43.1423320000
80        4   2 -0.20569999999999999396 30.8035170000 14.2383450000 38.7681560000
81        4   2 -0.20569999999999999396 28.8243450000 14.1899030000 37.8543370000
82        4   2 -0.20569999999999999396 30.4528670000 15.2588770000 36.8631610000
83        4   2 -0.20569999999999999396 30.6969770000 17.0236690000 44.3249360000
84        4   2 -0.20569999999999999396 28.9489070000 18.3135780000 44.5081150000
85        4   2 -0.20569999999999999396 29.2503050000 16.6850860000 45.9343440000
86        4   3 -0.53500000000000003109 29.7399360000 14.2541710000 41.7714220000
87        4   3 -0.53500000000000003109 28.9427420000 16.0025640000 40.0432580000
88        4   3 -0.53500000000000003109 28.6757110000 16.4193390000 42.3891310000
89        4   4  0.14230000000000000981 30.8766910000 13.4085040000 41.7419300000
90        4   4  0.14230000000000000981 29.5498830000 16.2668220000 38.7929430000
91        4   4  0.14230000000000000981 28.5835510000 16.0728450000 43.7612690000
92        4   5  0.53229999999999999538 31.1680600000 12.9149860000 43.1520580000
93        4   5  0.53229999999999999538 29.8976270000 14.9727430000 38.0639110000
94        4   5  0.53229999999999999538 29.3777660000 17.0392510000 44.6327470000
95        4   6  0.08250000000000000389 30.6658950000 12.5454750000 41.1048220000
96        4   6  0.08250000000000000389 31.7758040000 13.9164770000 41.3738510000
97        4   6  0.08250000000000000389 28.8315010000 16.8170280000 38.1813510000
98        4   6  0.08250000000000000389 30.4738920000 16.8530570000 38.8829080000
99        4   6  0.08250000000000000389 27.5310480000 16.1501350000 44.0443340000
100       4   6  0.08250000000000000389 28.9386320000 15.0579060000 43.9599510000
101       5   1  0.93750000000000000000 30.0912060000  9.1752340000 51.8142350000
102       5   2 -0.20569999999999999396 27.6744730000  7.5235260000 53.8734250000
103       5   2 -0.20569999999999999396 25.9776160000  8.3746130000 52.8041490000
104       5   2 -0.20569999999999999396 26.4077200000  6.2368980000 52.6338450000
105       5   2 -0.20569999999999999396 29.6577600000  7.6477460000 48.9933870000
106       5   2 -0.20569999999999999396 29.5885880000  9.4578730000 47.7796380000
107       5   2 -0.20569999999999999396 31.2016110000  8.0127870000 47.4845070000
108       5   2 -0.20569999999999999396 30.2647630000  8.9615770000 55.0392600000
109       5   2 -0.20569999999999999396 31.0852960000 10.9624750000 55.3154860000
110       5   2 -0.20569999999999999396 29.1401330000 10.4588460000 56.1755200000
111       5   3 -0.53500000000000003109 28.4394940000  9.0007170000 51.6080290000
112       5   3 -0.53500000000000003109 30.5144050000  9.9794720000 50.4181850000
113       5   3 -0.53500000000000003109 30.0330760000 10.5801270000 52.6887930000
114       5   4  0.14230000000000000981 27.8683160000  7.7075370000 51.5096620000
115       5   4  0.14230000000000000981 31.2995390000  9.3173020000 49.4451300000
116       5   4  0.14230000000000000981 29.2190730000 10.7378560000 53.8393730000
117       5   5  0.53229999999999999538 26.9722260000  7.4648710000 52.7159180000
118       5   5  0.53229999999999999538 30.4226390000  8.6145240000 48.4135280000
119       5   5  0.53229999999999999538 29.9427060000 10.2761060000 55.0992690000
120       5   6  0.08250000000000000389 27.2593410000  7.6518390000 50.6034560000
121       5   6  0.08250000000000000389 28.6206340000  6.9103930000 51.4872320000
122       5   6  0.08250000000000000389 31.8950020000 10.0711600000 48.9255470000
123       5   6  0.08250000000000000389 31.9683760000  8.5620940000 49.8785760000
124       5   6  0.08250000000000000389 29.0087720000 11.8050560000 53.9428950000
125       5   6  0.08250000000000000389 28.2767030000 10.1886510000 53.7621070000
126       6   1  0.93750000000000000000 16.7271790000 23.6420140000 39.9507200000
127       6   2 -0.20569999999999999396 16.8248150000 24.7990950000 43.3360760000
128       6   2 -0.20569999999999999396 15.7167340000 26.6214510000 42.8908740000
129       6   2 -0.20569999999999999396 14.7829160000 25.0472280000 44.0882150000
130       6   2 -0.20569999999999999396 13.5761420000 22.9867920000 39.6044120000
131       6   2 -0.20569999999999999396 13.3557830000 24.0070670000 37.6899890000
132       6   2 -0.20569999999999999396 13.0488820000 21.8464420000 37.8113560000
133       6   2 -0.20569999999999999396 19.3459960000 23.5447940000 41.8504330000
134       6   2 -0.20569999999999999396 20.7530220000 24.0186710000 40.2539090000
135       6   2 -0.20569999999999999396 20.5420410000 25.3768980000 41.9532220000
136       6   3 -0.53500000000000003109 15.8902620000 24.8904530000 40.6869940000
137       6   3 -0.53500000000000003109 16.0870120000 23.6778450000 38.4132710000
138       6   3 -0.53500000000000003109 18.0481010000 24.5313700000 39.4966660000
139       6   4  0.14230000000000000981 15.0322050000 24.6219270000 41.7823780000
140       6   4  0.14230000000000000981 15.2739920000 22.6066910000 37.9735350000
141       6   4  0.14230000000000000981 18.7731940000 25.3494790000 40.4001330000
142       6   5  0.53229999999999999538 15.5962930000 25.2834330000 43.0318310000
143       6   5  0.53229999999999999538 13.8011160000 22.8759980000 38.2653640000
144       6   5  0.53229999999999999538 19.8628910000 24.5578470000 41.1143270000
145       6   6  0.08250000000000000389 14.0449250000 25.0442350000 41.5772070000
146       6   6  0.08250000000000000389 14.9292150000 23.5503470000 41.9898230000
147       6   6  0.08250000000000000389 15.3936350000 22.5176050000 36.8915940000
148       6   6  0.08250000000000000389 15.5345720000 21.6510680000 38.4472880000
149       6   6  0.08250000000000000389 19.2561690000 26.1326940000 39.8109200000
150       6   6  0.08250000000000000389 18.1296190000 25.8089690000 41.1553400000
151       7   1  0.93750000000000000000 28.6110890000 52.0932390000  4.1713970000
152       7   2 -0.20569999999999999396 31.2099060000 54.0645180000  5.6442200000
153       7   2 -0.20569999999999999396 31.4482670000 52.7275610000  7.3479680000
154       7   2 -0.20569999999999999396 33.0273510000 52.8582420000  5.8402420000
155       7   2 -0.20569999999999999396 30.2533890000 49.4430400000  3.3010060000
156       7   2 -0.20569999999999999396 28.8169510000 48.0231380000  4.1226220000
157       7   2 -0.20569999999999999396 29.1834040000 48.0744740000  1.9684870000
158       7   2 -0.20569999999999999396 28.5585210000 55.3209070000  4.4079340000
159       7   2 -0.20569999999999999396 26.4198020000 55.4440780000  4.8127540000
160       7   2 -0.20569999999999999396 27.8498460000 56.1457710000  6.3092690000
161       7   3 -0.53500000000000003109 29.6525400000 51.7345550000  5.4314990000
162       7   3 -0.53500000000000003109 27.7666580000 50.6648230000  4.0250600000
163       7   3 -0.53500000000000003109 27.4199400000 52.7841620000  5.0910390000
164       7   4  0.14230000000000000981 31.0532290000 51.7297370000  5.2163660000
165       7   4  0.14230000000000000981 27.9461940000 49.8661040000  2.8711300000
166       7   4  0.14230000000000000981 27.6734750000 53.8147820000  6.0317070000
167       7   5  0.53229999999999999538 31.6859190000 52.8539830000  6.0242590000
168       7   5  0.53229999999999999538 29.0534220000 48.8375280000  3.0788100000
169       7   5  0.53229999999999999538 27.6203060000 55.1902770000  5.3764360000
170       7   6  0.08250000000000000389 31.4658670000 50.7768740000  5.5583360000
171       7   6  0.08250000000000000389 31.3229810000 51.8820090000  4.1647150000
172       7   6  0.08250000000000000389 27.0139390000 49.3272750000  2.6883460000
173       7   6  0.08250000000000000389 28.2055970000 50.4545930000  1.9812140000
174       7   6  0.08250000000000000389 26.8819870000 53.7682780000  6.7835350000
175       7   6  0.08250000000000000389 28.6449950000 53.7032290000  6.5209540000
176       8   1  0.93750000000000000000 36.7102120000 13.0997060000 37.0890520000
177       8   2 -0.20569999999999999396 33.3040050000 13.7633640000 37.9644460000
178       8   2 -0.20569999999999999396 33.8096110000 14.4628260000 39.9649810000
179       8   2 -0.20569999999999999396 33.0737610000 15.8814520000 38.4717160000
180       8   2 -0.20569999999999999396 37.9187290000 16.0998990000 36.9601760000
181       8   2 -0.20569999999999999396 39.6993490000 15.6629370000 38.1404250000
182       8   2 -0.20569999999999999396 39.9030440000 16.2713220000 36.0510240000
183       8   2 -0.20569999999999999396 34.2294810000 11.1227920000 36.4453570000
184       8   2 -0.20569999999999999396 35.3515430000  9.2895140000 36.8103770000
185       8   2 -0.20569999999999999396 33.6208600000  9.7689790000 38.0560920000
186       8   3 -0.53500000000000003109 36.0762490000 13.9325330000 38.3950460000
187       8   3 -0.53500000000000003109 38.3459680000 13.2934590000 37.3372650000
188       8   3 -0.53500000000000003109 36.7102850000 11.6007470000 37.7926680000
189       8   4  0.14230000000000000981 35.2727230000 15.0805260000 38.1836370000
190       8   4  0.14230000000000000981 39.0954190000 14.0916670000 36.4412030000
191       8   4  0.14230000000000000981 35.5661620000 11.0440170000 38.4190440000
192       8   5  0.53229999999999999538 33.8548250000 14.7907980000 38.6553800000
193       8   5  0.53229999999999999538 39.1600260000 15.5404040000 36.9145330000
194       8   5  0.53229999999999999538 34.6913670000 10.2993110000 37.4168760000
195       8   6  0.08250000000000000389 35.6738970000 15.9124270000 38.7685830000
196       8   6  0.08250000000000000389 35.2197750000 15.3747960000 37.1288740000
197       8   6  0.08250000000000000389 40.1141520000 13.6988420000 36.4144340000
198       8   6  0.08250000000000000389 38.6810950000 14.0952200000 35.4244030000
199       8   6  0.08250000000000000389 35.9213480000 10.3224190000 39.1586380000
200       8   6  0.08250000000000000389 34.9531820000 11.8007070000 38.9163690000
201       9   1  0.93750000000000000000 46.7695070000 40.1256740000 57.8187930000
202       9   2 -0.20569999999999999396 43.9148210000 40.0285730000 59.9752580000
203       9   2 -0.20569999999999999396 42.5650550000 39.3904210000 58.3884630000
204       9   2 -0.20569999999999999396 43.0796780000 38.0040840000 60.0000000000
205       9   2 -0.20569999999999999396 47.1836150000 36.9779640000 57.1873540000
206       9   2 -0.20569999999999999396 47.4118640000 37.2214140000 55.0325540000
207       9   2 -0.20569999999999999396 49.0789840000 36.4584230000 56.2224180000
208       9   2 -0.20569999999999999396 46.0367660000 42.4020730000 59.9999990000
209       9   2 -0.20569999999999999396 46.6958990000 44.0691890000 58.7592600000
210       9   2 -0.20569999999999999396 44.6009920000 43.9302080000 59.3667170000
211       9   3 -0.53500000000000003109 45.2469340000 39.4799580000 57.5619890000
212       9   3 -0.53500000000000003109 47.5468180000 39.7088780000 56.4056700000
213       9   3 -0.53500000000000003109 46.4328070000 41.6497800000 57.2659030000
214       9   4  0.14230000000000000981 44.7592380000 38.4519860000 58.4067730000
215       9   4  0.14230000000000000981 48.5899020000 38.7536690000 56.4415960000
216       9   4  0.14230000000000000981 45.3250030000 42.4077660000 57.7236600000
217       9   5  0.53229999999999999538 43.5671960000 38.9770160000 59.1943630000
218       9   5  0.53229999999999999538 48.0556950000 37.3442020000 56.2069040000
219       9   5  0.53229999999999999538 45.6776120000 43.2083240000 58.9722460000
220       9   6  0.08250000000000000389 44.4305380000 37.6087810000 57.7934840000
221       9   6  0.08250000000000000389 45.5075840000 38.1024810000 59.1277080000
222       9   6  0.08250000000000000389 49.2879120000 38.9894260000 55.6353410000
223       9   6  0.08250000000000000389 49.1292040000 38.7468230000 57.3979770000
224       9   6  0.08250000000000000389 45.0671390000 43.1144930000 56.9312560000
225       9   6  0.08250000000000000389 44.4563750000 41.7828400000 57.9486270000
226      10   1  0.93750000000000000000 36.7984620000  2.0310520000 49.9320870000
227      10   2 -0.20569999999999999396 35.9175920000  4.9260270000 48.0210160000
228      10   2 -0.20569999999999999396 35.4466720000  6.1167860000 49.7837840000
229      10   2 -0.20569999999999999396 37.2105560000  6.6014540000 48.5847730000
230      10   2 -0.20569999999999999396 39.5185120000  3.0354990000 51.3710780000
231      10   2 -0.20569999999999999396 38.9703520000  2.3474220000 53.3662220000
232      10   2 -0.20569999999999999396 40.6936440000  1.4683080000 52.3490480000
233      10   2 -0.20569999999999999396 34.9815160000  1.9811960000 47.2538820000
234      10   2 -0.20569999999999999396 33.6438210000  0.4131130000 47.9644170000
235      10   2 -0.20569999999999999396 32.8476270000  2.3989650000 47.5178490000
236      10   3 -0.53500000000000003109 36.5299550000  3.6073650000 50.4263250000
237      10   3 -0.53500000000000003109 37.2360620000  1.3059800000 51.3665300000
238      10   3 -0.53500000000000003109 35.2316360000  1.5126940000 50.0674250000
239      10   4  0.14230000000000000981 37.3312870000  4.6585910000 49.9154170000
240      10   4  0.14230000000000000981 38.5660200000  0.8558360000 51.5406630000
241      10   4  0.14230000000000000981 34.1400770000  2.1974560000 49.4750470000
242      10   5  0.53229999999999999538 36.4637380000  5.5829860000 49.0729390000
243      10   5  0.53229999999999999538 39.4362670000  1.9373690000 52.1731280000
244      10   5  0.53229999999999999538 33.9067250000  1.7353710000 48.0410950000
245      10   6  0.08250000000000000389 37.7471090000  5.2309020000 50.7489110000
246      10   6  0.08250000000000000389 38.1503570000  4.2998830000 49.2810850000
247      10   6  0.08250000000000000389 38.5439000000  0.0000000000 52.2188220000
248      10   6  0.08250000000000000389 39.0427840000  0.5589390000 50.5972080000
249      10   6  0.08250000000000000389 33.2492880000  1.9515880000 50.0580600000
250      10   6  0.08250000000000000389 34.2814730000  3.2817220000 49.4692350000
251      11   1  0.93750000000000000000  5.1644990000 24.0125440000 21.9603490000
252      11   2 -0.20569999999999999396  5.0755920000 23.1595880000 25.4350520000
253      11   2 -0.20569999999999999396  3.8765300000 24.8973950000 25.9729190000
254      11   2 -0.20569999999999999396  2.9977160000 22.8971500000 26.0755150000
255      11   2 -0.20569999999999999396  2.0721730000 23.5487940000 21.1232510000
256      11   2 -0.20569999999999999396  1.8575110000 25.4340660000 20.0489140000
257      11   2 -0.20569999999999999396  1.6764120000 23.5419180000 18.9699340000
258      11   2 -0.20569999999999999396  7.7171690000 22.9874360000 23.6661000000
259      11   2 -0.20569999999999999396  9.1476980000 24.2930800000 22.6650750000
260      11   2 -0.20569999999999999396  8.7971890000 24.5104110000 24.8114360000
261      11   3 -0.53500000000000003109  4.2294270000 24.6380240000 23.1995200000
262      11   3 -0.53500000000000003109  4.5768920000 24.8530310000 20.6476610000
263      11   3 -0.53500000000000003109  6.4447590000 25.0475820000 22.1380790000
264      11   4  0.14230000000000000981  3.3516030000 23.7932120000 23.9233660000
265      11   4  0.14230000000000000981  3.8451090000 24.1641160000 19.6518550000
266      11   4  0.14230000000000000981  7.0879260000 25.2703840000 23.3822690000
267      11   5  0.53229999999999999538  3.8315520000 23.6922960000 25.3643320000
268      11   5  0.53229999999999999538  2.3495490000 24.1862170000 19.9516320000
269      11   5  0.53229999999999999538  8.1976780000 24.2533880000 23.6238500000
270      11   6  0.08250000000000000389  2.3485130000 24.2278810000 23.9173940000
271      11   6  0.08250000000000000389  3.3057940000 22.7767890000 23.5150650000
272      11   6  0.08250000000000000389  4.0072160000 24.6775440000 18.7016140000
273      11   6  0.08250000000000000389  4.1458540000 23.1128450000 19.5521570000
274      11   6  0.08250000000000000389  7.5432660000 26.2626290000 23.3378140000
275      11   6  0.08250000000000000389  6.3922790000 25.2283420000 24.2248640000
276      12   1  0.93750000000000000000 44.2767910000 32.2856780000 36.2761290000
277      12   2 -0.20569999999999999396 41.7295750000 30.6947370000 38.2228180000
278      12   2 -0.20569999999999999396 40.3368390000 30.5700890000 36.5519570000
279      12   2 -0.20569999999999999396 41.2441900000 28.7462960000 37.3483960000
280      12   2 -0.20569999999999999396 45.1280020000 29.8851420000 34.2783430000
281      12   2 -0.20569999999999999396 45.0763180000 31.0911070000 32.4624380000
282      12   2 -0.20569999999999999396 46.9657050000 30.2241330000 33.1375630000
283      12   2 -0.20569999999999999396 43.4250380000 33.1784430000 39.2684600000
284      12   2 -0.20569999999999999396 43.6632210000 35.3142690000 38.9014620000
285      12   2 -0.20569999999999999396 41.6983570000 34.5163830000 39.4302750000
286      12   3 -0.53500000000000003109 42.8613390000 31.5355360000 35.7914530000
287      12   3 -0.53500000000000003109 44.9524480000 32.6937340000 34.8092180000
288      12   3 -0.53500000000000003109 43.6371830000 33.7991910000 36.4813930000
289      12   4  0.14230000000000000981 42.6435140000 30.1676170000 36.0907600000
290      12   4  0.14230000000000000981 46.1351590000 32.0441810000 34.3837620000
291      12   4  0.14230000000000000981 42.4772390000 34.0460370000 37.2591520000
292      12   5  0.53229999999999999538 41.4751140000 30.0487110000 37.0590680000
293      12   5  0.53229999999999999538 45.8159790000 30.8077100000 33.5493060000
294      12   5  0.53229999999999999538 42.8287510000 34.2672530000 38.7260180000
295      12   6  0.08250000000000000389 42.3919040000 29.6341770000 35.1702740000
296      12   6  0.08250000000000000389 43.5132140000 29.6901060000 36.5571600000
297      12   6  0.08250000000000000389 46.6928350000 32.7417670000 33.7550980000
298      12   6  0.08250000000000000389 46.7696670000 31.7226510000 35.2201680000
299      12   6  0.08250000000000000389 42.0222690000 34.9638300000 36.8789960000
300      12   6  0.08250000000000000389 41.7522700000 33.2297700000 37.1976080000
301      13   1  0.93750000000000000000  4.8391170000 38.7883750000 43.5602650000
302      13   2 -0.20569999999999999396  1.3525550000 38.1959510000 43.0107920000
303      13   2 -0.20569999999999999396  1.6920540000 37.0617030000 41.1817910000
304      13   2 -0.20569999999999999396  0.9689950000 36.0399680000 42.9754080000
305      13   2 -0.20569999999999999396  5.8773620000 35.8040530000 44.2632220000
306      13   2 -0.20569999999999999396  7.6038940000 35.8604770000 42.9326450000
307      13   2 -0.20569999999999999396  7.9008360000 35.6878890000 45.0911770000
308      13   2 -0.20569999999999999396  2.5217170000 41.0239420000 43.8895940000
309      13   2 -0.20569999999999999396  3.7234210000 42.6582630000 43.0907980000
310      13   2 -0.20569999999999999396  1.8941200000 42.0516620000 42.0599480000
311      13   3 -0.53500000000000003109  4.0783800000 37.7480670000 42.4924790000
312      13   3 -0.53500000000000003109  6.4424030000 38.4336820000 43.2800540000
313      13   3 -0.53500000000000003109  4.8825490000 40.1042030000 42.5559410000
314      13   4  0.14230000000000000981  3.2242850000 36.7281160000 42.9807970000
315      13   4  0.14230000000000000981  7.1983180000 37.7893510000 44.2876110000
316      13   4  0.14230000000000000981  3.7360670000 40.5966150000 41.8818320000
317      13   5  0.53229999999999999538  1.7991030000 37.0113240000 42.5274020000
318      13   5  0.53229999999999999538  7.1494440000 36.2729030000 44.1293380000
319      13   5  0.53229999999999999538  2.9695760000 41.5928080000 42.7445510000
320      13   6  0.08250000000000000389  3.5396140000 35.7667490000 42.5666690000
321      13   6  0.08250000000000000389  3.2197160000 36.6643840000 44.0752560000
322      13   6  0.08250000000000000389  8.2378090000 38.1071770000 44.1813510000
323      13   6  0.08250000000000000389  6.8481760000 38.0265140000 45.3008790000
324      13   6  0.08250000000000000389  4.0860500000 41.1218210000 40.9899060000
325      13   6  0.08250000000000000389  3.0506720000 39.7975350000 41.5862600000
326      14   1  0.93750000000000000000 11.5256810000 57.1448210000 14.5291630000
327      14   2 -0.20569999999999999396 11.2151480000 57.7795000000 18.0376880000