Generated by pymatgen.io.lammps.data.LammpsData

15512  atoms
14787  bonds
26438  angles
26601  dihedrals

   16  atom types
   15  bond types
   25  angle types
   20  dihedral types

-0.2500000000 60.2500000000  xlo xhi
-0.2500000000 60.2500000000  ylo yhi
-0.2500000000 60.2500000000  zlo zhi

Masses

1   18.998403
2   15.999400
3   12.010700
4    1.007940
5   14.010000
6   32.060000
7   16.000000
8   12.010000
9   19.000000
10  16.000000
11  12.010000
12  12.010000
13   1.008000
14  32.060000
15  32.060000
16   6.941000

Pair Coeffs

1     0.0610  2.940000
2     0.1400  2.900000
3     0.0660  3.500000
4     0.0300  2.500000
5       0.17  3.249999
6       0.25  3.549340
7       0.21  2.959566
8      0.066  3.499450
9      0.053  2.948875
10      0.14  2.900000
11     0.066  3.500000
12     0.066  3.500000
13      0.03  2.500000
14  0.344001  3.590322
15  0.344001  3.590322
16  0.165057  1.506000

Bond Coeffs

1   367.00  1.332
2   320.00  1.410
3   268.00  1.529
4   340.00  1.090
5   441.80  1.323
6   235.40  1.818
7   637.10  1.442
8   372.00  1.570
9   320.00  1.410
10  320.00  1.380
11  268.00  1.529
12  340.00  1.090
13  340.00  1.090
14  157.87  2.133
15  154.36  2.117


Angle Coeffs

1    60.00  109.50
2    50.00  109.50
3    35.00  109.50
4    58.35  112.70
5    37.50  110.70
6    77.00  109.10
7    50.00  109.50
8    33.00  107.80
9    93.30  107.10
10   82.90  111.80
11  104.00  102.60
12  115.80  118.50
13   94.30  113.60
14   97.50  100.20
15   80.20  125.60
16   60.00  109.50
17   50.00  109.50
18   35.00  109.50
19   37.50  110.70
20   33.00  107.80
21   92.60  111.55
22   35.00  109.50
23   33.00  109.50
24   73.56  112.74
25   73.56  112.74


Dihedral Coeffs

1 3 0.062500000 1 0.000000000 -0.011000000 2 180.000000000 0.280500000 3 0.000000000
2 1 0.370500000 3 0.000000000
3 2 0.518500000 1 0.000000000 -0.728500000 2 180.000000000
4 3 0.396500000 1 0.000000000 -0.183500000 2 180.000000000 0.414500000 3 0.000000000
5 1 0.221000000 3 0.000000000
6 1 0.173400000 3 0.000000000
7 1 0.158000000 3 0.000000000
8 1 -0.001800000 3 0.000000000
9 3 3.916460000 1 0.000000000 -1.245000000 2 180.000000000 -0.381800000 3 0.000000000
10 3 0.062500000 1 0.000000000 -0.011000000 2 180.000000000 0.280500000 3 0.000000000
11 3 0.062500000 1 0.000000000 -0.011000000 2 180.000000000 0.280500000 3 0.000000000
12 1 0.370500000 3 0.000000000
13 1 0.370500000 3 0.000000000
14 3 -0.533500000 1 0.000000000 -0.783500000 2 180.000000000 0.337500000 3 0.000000000
15 1 0.370500000 3 0.000000000
16 3 1.119000000 1 0.000000000 -1.163500000 2 180.000000000 -0.341500000 3 0.000000000
17 1 0.234000000 3 0.000000000
18 1 0.150000000 3 0.000000000
19 4 5.431700000 1 0.000000000 -3.590000000 2 180.000000000 1.055600000 3 0.000000000 0.058320000 4 180.000000000
20 4 5.431700000 1 0.000000000 -3.590000000 2 180.000000000 1.055600000 3 0.000000000 0.058320000 4 180.000000000


Atoms

1         1   1 -0.20569999999999999396 37.6997880000 25.5824180000 34.0474820000
2         1   1 -0.20569999999999999396 38.6157260000 23.8843760000 35.0693760000
3         1   1 -0.20569999999999999396 38.1315980000 25.6985060000 36.1819160000
4         1   1 -0.20569999999999999396 34.5390310000 22.9002020000 34.9586840000
5         1   1 -0.20569999999999999396 35.4195490000 24.0772260000 33.3478750000
6         1   1 -0.20569999999999999396 36.5132280000 22.3847200000 34.1855770000
7         1   2 -0.40000000000000002220 35.4278130000 25.3845080000 35.7846580000
8         1   3  0.17000000000000001221 36.3135220000 24.3276430000 35.5630810000
9         1   3  0.61709999999999998188 37.7069960000 24.8768780000 35.1896790000
10        1   3  0.61709999999999998188 35.6949850000 23.4187060000 34.4839710000
11        1   3  0.11000000000000000056 35.1548260000 25.6829190000 37.1579770000
12        1   4  0.02999999999999999889 36.4565090000 23.6956560000 36.4501020000
13        1   4  0.02999999999999999889 34.7069460000 24.8156270000 37.6608120000
14        1   4  0.02999999999999999889 36.0646000000 25.9964190000 37.6830350000
15        1   4  0.02999999999999999889 34.4386740000 26.5055750000 37.1448370000
16        2   1 -0.20569999999999999396 45.1763180000 11.0973060000 10.2361920000
17        2   1 -0.20569999999999999396 45.9192350000 11.2450060000  8.1885550000
18        2   1 -0.20569999999999999396 46.9703130000 12.2612600000  9.8089430000
19        2   1 -0.20569999999999999396 47.4438510000  7.5775990000  9.5398370000
20        2   1 -0.20569999999999999396 45.5241530000  8.2988240000 10.2814540000
21        2   1 -0.20569999999999999396 46.0296210000  8.5177310000  8.1698110000
22        2   2 -0.40000000000000002220 47.6536070000  9.8947170000 11.0334600000
23        2   3  0.17000000000000001221 47.2062130000  9.9155620000  9.7106050000
24        2   3  0.61709999999999998188 46.2875720000 11.1351950000  9.4837740000
25        2   3  0.61709999999999998188 46.5242950000  8.5635740000  9.4271410000
26        2   3  0.11000000000000000056 48.9967200000 10.3463510000 11.2375460000
27        2   4  0.02999999999999999889 48.0245550000 10.0038490000  8.9831570000
28        2   4  0.02999999999999999889 49.7047570000  9.7196160000 10.6794060000
29        2   4  0.02999999999999999889 49.1095160000 11.3968200000 10.9452280000
30        2   4  0.02999999999999999889 49.1839900000 10.2425860000 12.3071120000
31        3   1 -0.20569999999999999396 40.6210050000 12.2775520000 31.1489320000
32        3   1 -0.20569999999999999396 39.2976730000 10.5433940000 31.2386320000
33        3   1 -0.20569999999999999396 40.5929890000 10.8418680000 29.5076600000
34        3   1 -0.20569999999999999396 42.6338180000  9.3690620000 33.4950400000
35        3   1 -0.20569999999999999396 42.0302220000 11.4641230000 33.4526190000
36        3   1 -0.20569999999999999396 40.5187560000  9.8962070000 33.5924960000
37        3   2 -0.40000000000000002220 42.8845380000 10.5248830000 30.9960080000
38        3   3  0.17000000000000001221 41.6429000000 10.1261370000 31.4958850000
39        3   3  0.61709999999999998188 40.5207360000 10.9711930000 30.8559730000
40        3   3  0.61709999999999998188 41.7017320000 10.2332570000 33.0315600000
41        3   3  0.11000000000000000056 43.4541880000  9.6659110000 30.0024070000
42        3   4  0.02999999999999999889 41.4077790000  9.0768930000 31.2712460000
43        3   4  0.02999999999999999889 43.6119680000  8.6574630000 30.4070970000
44        3   4  0.02999999999999999889 42.8207500000  9.6201170000 29.1089210000
45        3   4  0.02999999999999999889 44.4170240000 10.1093960000 29.7453560000
46        4   1 -0.20569999999999999396 21.2167630000 13.9065770000  5.5024790000
47        4   1 -0.20569999999999999396 22.1883080000 11.9790820000  5.1747320000
48        4   1 -0.20569999999999999396 20.0260830000 12.0802050000  5.4535690000
49        4   1 -0.20569999999999999396 21.7320910000 13.5358880000  1.3058150000
50        4   1 -0.20569999999999999396 22.0508450000 14.8824620000  2.9912050000
51        4   1 -0.20569999999999999396 23.1799880000 13.0199930000  2.8544640000
52        4   2 -0.40000000000000002220 19.6558060000 13.5072740000  3.1312370000
53        4   3  0.17000000000000001221 20.8551970000 12.8354700000  3.3775710000
54        4   3  0.61709999999999998188 21.0889970000 12.7143290000  4.8985970000
55        4   3  0.61709999999999998188 21.9742220000 13.5909440000  2.6357670000
56        4   3  0.11000000000000000056 18.5504990000 12.6785350000  2.7556510000
57        4   4  0.02999999999999999889 20.8618940000 11.8114750000  2.9800180000
58        4   4  0.02999999999999999889 18.7742600000 12.1307950000  1.8306940000
59        4   4  0.02999999999999999889 18.2915980000 11.9772050000  3.5573770000
60        4   4  0.02999999999999999889 17.7161880000 13.3594820000  2.5823160000
61        5   1 -0.20569999999999999396 44.3216270000 39.0935390000 21.4873110000
62        5   1 -0.20569999999999999396 42.9800560000 40.3318750000 20.2901200000
63        5   1 -0.20569999999999999396 45.1402300000 40.4799190000 20.0163980000
64        5   1 -0.20569999999999999396 43.0066790000 36.6534550000 18.2729900000
65        5   1 -0.20569999999999999396 43.2390750000 36.7088120000 20.4405530000
66        5   1 -0.20569999999999999396 41.7907160000 38.0177050000 19.4650990000
67        5   2 -0.40000000000000002220 45.3371380000 37.8981750000 19.0875900000
68        5   3  0.17000000000000001221 44.1010710000 38.5448940000 19.1541630000
69        5   3  0.61709999999999998188 44.1252340000 39.6154190000 20.2660310000
70        5   3  0.61709999999999998188 43.0199560000 37.4659140000 19.3547310000
71        5   3  0.11000000000000000056 46.1921620000 38.3106340000 18.0159600000
72        5   4  0.02999999999999999889 43.8413780000 39.0689690000 18.2243440000
73        5   4  0.02999999999999999889 45.7128320000 38.1260500000 17.0454940000
74        5   4  0.02999999999999999889 46.4612980000 39.3691420000 18.1096880000
75        5   4  0.02999999999999999889 47.0896280000 37.6965220000 18.1009850000
76        6   1 -0.20569999999999999396 56.7260080000 52.4873540000 10.8011020000
77        6   1 -0.20569999999999999396 55.9999650000 54.5079770000 11.1967050000
78        6   1 -0.20569999999999999396 55.6489280000 53.5812250000  9.2522010000
79        6   1 -0.20569999999999999396 53.0475430000 52.0423910000 12.8713340000
80        6   1 -0.20569999999999999396 55.1281230000 51.3896130000 12.8495810000
81        6   1 -0.20569999999999999396 54.6406600000 53.4638790000 13.3210210000
82        6   2 -0.40000000000000002220 54.0331520000 51.6286400000 10.3215640000
83        6   3  0.17000000000000001221 54.3496470000 52.7772600000 11.0502910000
84        6   3  0.61709999999999998188 55.7104070000 53.3384980000 10.5853160000
85        6   3  0.61709999999999998188 54.3087830000 52.4075980000 12.5452540000
86        6   3  0.11000000000000000056 53.0679170000 51.8059050000  9.2792220000
87        6   4  0.02999999999999999889 53.6180220000 53.5853820000 10.9149270000
88        6   4  0.02999999999999999889 52.1147350000 52.1628850000  9.6910990000
89        6   4  0.02999999999999999889 53.4340510000 52.5015260000  8.5152100000
90        6   4  0.02999999999999999889 52.9261240000 50.8189550000  8.8369180000
91        7   1 -0.20569999999999999396 55.3326020000 52.7540620000 21.8318770000
92        7   1 -0.20569999999999999396 56.4681050000 52.3274070000 23.6471330000
93        7   1 -0.20569999999999999396 57.4909960000 52.4617890000 21.7238980000
94        7   1 -0.20569999999999999396 56.0574340000 56.5023420000 23.6865940000
95        7   1 -0.20569999999999999396 54.4922040000 55.2621010000 22.8106590000
96        7   1 -0.20569999999999999396 55.4582310000 54.6483900000 24.6687780000
97        7   2 -0.40000000000000002220 56.8871490000 55.1298410000 21.4345380000
98        7   3  0.17000000000000001221 56.7645460000 54.4962200000 22.6730990000
99        7   3  0.61709999999999998188 56.4896210000 52.9908360000 22.4703910000
100       7   3  0.61709999999999998188 55.6633650000 55.2272830000 23.4644150000
101       7   3  0.11000000000000000056 58.2260560000 55.4252430000 21.0226590000
102       7   4  0.02999999999999999889 57.6762380000 54.5659860000 23.2818760000
103       7   4  0.02999999999999999889 58.7137870000 56.0948660000 21.7433230000
104       7   4  0.02999999999999999889 58.8138560000 54.5080240000 20.9007630000
105       7   4  0.02999999999999999889 58.1343950000 55.9310400000 20.0605900000
106       8   1 -0.20569999999999999396 33.6633010000 53.4332050000 34.8187280000
107       8   1 -0.20569999999999999396 35.3592770000 54.8004840000 34.9628450000
108       8   1 -0.20569999999999999396 35.4461060000 52.8451930000 35.9285010000
109       8   1 -0.20569999999999999396 35.8853250000 52.9494670000 31.2349360000
110       8   1 -0.20569999999999999396 33.8749920000 53.2855630000 32.0101830000
111       8   1 -0.20569999999999999396 35.4022580000 54.8282650000 32.2337520000
112       8   2 -0.40000000000000002220 35.3463140000 51.5036740000 33.5290790000
113       8   3  0.17000000000000001221 35.6461990000 52.8668550000 33.5775190000
114       8   3  0.61709999999999998188 35.0039560000 53.5039620000 34.8283100000
115       8   3  0.61709999999999998188 35.1781650000 53.4951610000 32.2510920000
116       8   3  0.11000000000000000056 36.4012910000 50.6252100000 33.9351610000
117       8   4  0.02999999999999999889 36.7242740000 53.0659330000 33.6466570000
118       8   4  0.02999999999999999889 37.2815050000 50.7541120000 33.2915450000
119       8   4  0.02999999999999999889 36.6722820000 50.7910270000 34.9843160000
120       8   4  0.02999999999999999889 36.0074790000 49.6151490000 33.8147520000
121       9   1 -0.20569999999999999396 54.1698780000 10.5603030000 56.2533000000
122       9   1 -0.20569999999999999396 53.3552930000 10.4872670000 58.2775710000
123       9   1 -0.20569999999999999396 55.1956990000  9.4156670000 57.8003120000
124       9   1 -0.20569999999999999396 55.4744330000 14.1068180000 58.1859980000
125       9   1 -0.20569999999999999396 54.5221190000 13.3560120000 56.3735980000
126       9   1 -0.20569999999999999396 53.4863420000 13.2136670000 58.2891540000
127       9   2 -0.40000000000000002220 56.5742160000 11.7381730000 57.2782850000
128       9   3  0.17000000000000001221 55.3586440000 11.7638120000 57.9655010000
129       9   3  0.61709999999999998188 54.4955360000 10.5513810000 57.5557290000
130       9   3  0.61709999999999998188 54.6919710000 13.1238130000 57.6841170000
131       9   3  0.11000000000000000056 57.7008910000 11.2820020000 58.0346500000
132       9   4  0.02999999999999999889 55.4815560000 11.7030920000 59.0553930000
133       9   4  0.02999999999999999889 57.8705310000 11.9295910000 58.9049860000
134       9   4  0.02999999999999999889 57.5664890000 10.2428640000 58.3568090000
135       9   4  0.02999999999999999889 58.5556730000 11.3478080000 57.3602420000
136      10   1 -0.20569999999999999396 31.2660120000  5.4885020000  5.2425890000
137      10   1 -0.20569999999999999396 32.9445490000  4.2014350000  4.7017300000
138      10   1 -0.20569999999999999396 31.6632410000  3.6761500000  6.3885970000
139      10   1 -0.20569999999999999396 29.9002280000  3.0305280000  2.0632870000
140      10   1 -0.20569999999999999396 30.0148800000  5.0987020000  2.7451370000
141      10   1 -0.20569999999999999396 31.8375930000  4.0230230000  2.2130790000
142      10   2 -0.40000000000000002220 29.4629980000  3.3083340000  4.7790930000
143      10   3  0.17000000000000001221 30.7484860000  3.3643050000  4.2360180000
144      10   3  0.61709999999999998188 31.6673590000  4.2112810000  5.1421970000
145      10   3  0.61709999999999998188 30.6248620000  3.9048520000  2.7987420000
146      10   3  0.11000000000000000056 29.1300140000  2.0890940000  5.4515140000
147      10   4  0.02999999999999999889 31.2210640000  2.3762740000  4.1516220000
148      10   4  0.02999999999999999889 29.1935540000  1.2370220000  4.7618970000
149      10   4  0.02999999999999999889 29.7816240000  1.9242790000  6.3174810000
150      10   4  0.02999999999999999889 28.0992020000  2.2090010000  5.7874590000
151      11   1 -0.20569999999999999396 37.3283730000  6.4704850000  8.7358880000
152      11   1 -0.20569999999999999396 36.5997340000  4.5102950000  8.1087550000
153      11   1 -0.20569999999999999396 36.3105140000  5.1771580000 10.1666270000
154      11   1 -0.20569999999999999396 33.5790860000  7.1417160000  6.8631210000
155      11   1 -0.20569999999999999396 35.6557810000  7.8061220000  6.8993020000
156      11   1 -0.20569999999999999396 35.1632670000  5.8047110000  6.1821980000
157      11   2 -0.40000000000000002220 34.6490490000  7.2350790000  9.4107490000
158      11   3  0.17000000000000001221 34.9464230000  6.1922440000  8.5306330000
159      11   3  0.61709999999999998188 36.3251640000  5.5890920000  8.8743470000
160      11   3  0.61709999999999998188 34.8526050000  6.7498030000  7.0976080000
161      11   3  0.11000000000000000056 33.7209110000  6.9166770000 10.4532260000
162      11   4  0.02999999999999999889 34.2240510000  5.3665140000  8.5854660000
163      11   4  0.02999999999999999889 32.7560820000  6.6062910000 10.0308540000
164      11   4  0.02999999999999999889 34.1165290000  6.1325070000 11.1091390000
165      11   4  0.02999999999999999889 33.5891890000  7.8375030000 11.0229080000
166      12   1 -0.20569999999999999396 19.2354360000 31.3302570000 30.1984850000
167      12   1 -0.20569999999999999396 18.6076440000 31.9426240000 28.1991260000
168      12   1 -0.20569999999999999396 17.1130330000 31.4582320000 29.7139510000
169      12   1 -0.20569999999999999396 19.3737340000 35.5722180000 30.1585760000
170      12   1 -0.20569999999999999396 20.5257780000 33.7931430000 30.6715010000
171      12   1 -0.20569999999999999396 20.0558440000 34.2240360000 28.5844100000
172      12   2 -0.40000000000000002220 17.8435300000 33.5772640000 31.3086100000
173      12   3  0.17000000000000001221 18.2450720000 33.5123110000 29.9725390000
174      12   3  0.61709999999999998188 18.3224390000 32.0397000000 29.5161510000
175      12   3  0.61709999999999998188 19.5798640000 34.2714380000 29.8488790000
176      12   3  0.11000000000000000056 16.4738660000 33.9336670000 31.5244200000
177      12   4  0.02999999999999999889 17.5444550000 34.0123360000 29.2900670000
178      12   4  0.02999999999999999889 16.2619840000 34.9267730000 31.1067120000
179      12   4  0.02999999999999999889 15.7979400000 33.1882810000 31.0894690000
180      12   4  0.02999999999999999889 16.3421690000 33.9587690000 32.6069330000
181      13   1 -0.20569999999999999396 58.1109230000 34.6926880000 56.6105820000
182      13   1 -0.20569999999999999396 57.2723320000 35.2887060000 54.6849440000
183      13   1 -0.20569999999999999396 57.4579020000 33.1733570000 55.1889840000
184      13   1 -0.20569999999999999396 54.0272120000 35.6023850000 57.3252280000
185      13   1 -0.20569999999999999396 56.0518940000 35.9888930000 58.0370430000
186      13   1 -0.20569999999999999396 55.4227960000 36.7293140000 56.0829540000
187      13   2 -0.40000000000000002220 55.6522480000 33.3666980000 57.2551620000
188      13   3  0.17000000000000001221 55.7475090000 34.3703770000 56.2886760000
189      13   3  0.61709999999999998188 57.1727340000 34.3985540000 55.6963940000
190      13   3  0.61709999999999998188 55.3234150000 35.6960110000 56.9490330000
191      13   3  0.11000000000000000056 54.9903210000 32.1682400000 56.8366770000
192      13   4  0.02999999999999999889 55.0630730000 34.2170950000 55.4432710000
193      13   4  0.02999999999999999889 53.9566510000 32.3823930000 56.5345190000
194      13   4  0.02999999999999999889 55.5315960000 31.6833730000 56.0159560000
195      13   4  0.02999999999999999889 54.9859910000 31.5131750000 57.7088470000
196      14   1 -0.20569999999999999396 28.1289000000 24.3844260000 44.6578580000
197      14   1 -0.20569999999999999396 26.2510940000 23.3376620000 45.0382270000
198      14   1 -0.20569999999999999396 27.7025800000 22.5050460000 43.6371100000
199      14   1 -0.20569999999999999396 28.7081370000 22.1690630000 48.2315970000
200      14   1 -0.20569999999999999396 28.9364860000 24.1504880000 47.3499980000
201      14   1 -0.20569999999999999396 26.9427960000 23.3260940000 47.6786780000
202      14   2 -0.40000000000000002220 29.5782670000 22.1007920000 45.6082100000
203      14   3  0.17000000000000001221 28.2407850000 22.3434920000 45.9288030000
204      14   3  0.61709999999999998188 27.5725650000 23.1721940000 44.8109510000
205      14   3  0.61709999999999998188 28.2080870000 23.0243950000 47.3103000000
206      14   3  0.11000000000000000056 29.8659630000 20.7878350000 45.1153080000
207      14   4  0.02999999999999999889 27.6502360000 21.4225470000 46.0276560000
208      14   4  0.02999999999999999889 29.6015940000 20.0275800000 45.8621390000
209      14   4  0.02999999999999999889 29.3375360000 20.5938840000 44.1746670000
210      14   4  0.02999999999999999889 30.9424700000 20.7671680000 44.9406250000
211      15   1 -0.20569999999999999396  2.8660750000 54.1669470000 46.0531390000
212      15   1 -0.20569999999999999396  1.4171280000 55.3648950000 47.1631060000
213      15   1 -0.20569999999999999396  2.0511410000 53.4242920000 47.9346520000
214      15   1 -0.20569999999999999396  5.1197370000 56.9871770000 48.2852390000
215      15   1 -0.20569999999999999396  4.8572650000 56.1504390000 46.2886460000
216      15   1 -0.20569999999999999396  3.2766340000 57.3630280000 47.1795380000
217      15   2 -0.40000000000000002220  4.6453600000 54.2634440000 48.2989470000
218      15   3  0.17000000000000001221  3.6138540000 55.1842460000 48.1023250000
219      15   3  0.61709999999999998188  2.4769230000 54.5357140000 47.2840020000
220      15   3  0.61709999999999998188  4.2233240000 56.4328630000 47.4369410000
221      15   3  0.11000000000000000056  4.6958560000 53.6616210000 49.5969600000
222      15   4  0.02999999999999999889  3.1621150000 55.5284390000 49.0426030000
223      15   4  0.02999999999999999889  4.8343810000 54.4261160000 50.3728410000
224      15   4  0.02999999999999999889  3.7897180000 53.0784140000 49.7980640000
225      15   4  0.02999999999999999889  5.5614910000 52.9981110000 49.5814880000
226      16   1 -0.20569999999999999396 44.5557190000 29.2939000000 14.3998170000
227      16   1 -0.20569999999999999396 44.3399900000 27.1974950000 14.9699940000
228      16   1 -0.20569999999999999396 45.1483900000 28.6402540000 16.3941170000
229      16   1 -0.20569999999999999396 40.5076310000 28.7940030000 15.5737170000
230      16   1 -0.20569999999999999396 41.7805890000 29.5861830000 13.9902290000
231      16   1 -0.20569999999999999396 41.6933450000 27.4348220000 14.3458820000
232      16   2 -0.40000000000000002220 42.7841990000 30.0402130000 16.5266810000
233      16   3  0.17000000000000001221 42.8272620000 28.7535270000 15.9852710000
234      16   3  0.61709999999999998188 44.2311930000 28.4704730000 15.4093240000
235      16   3  0.61709999999999998188 41.6963520000 28.6469130000 14.9446410000
236      16   3  0.11000000000000000056 42.8647940000 30.1117400000 17.9542540000
237      16   4  0.02999999999999999889 42.6331460000 27.9691410000 16.7293920000
238      16   4  0.02999999999999999889 42.0280200000 29.5716930000 18.4166310000
239      16   4  0.02999999999999999889 43.8191610000 29.7126990000 18.3170320000
240      16   4  0.02999999999999999889 42.7944160000 31.1718270000 18.2013810000
241      17   1 -0.20569999999999999396 44.8064200000 45.3190420000 23.2349200000
242      17   1 -0.20569999999999999396 46.6734130000 44.2094260000 23.0121120000
243      17   1 -0.20569999999999999396 44.9620110000 43.7358760000 21.7432360000
244      17   1 -0.20569999999999999396 47.3197240000 47.7051750000 20.7844860000
245      17   1 -0.20569999999999999396 46.0429920000 47.7600190000 22.5515030000
246      17   1 -0.20569999999999999396 47.8978400000 46.6106270000 22.5813200000
247      17   2 -0.40000000000000002220 45.0190820000 46.1959660000 20.5137810000
248      17   3  0.17000000000000001221 46.1103460000 45.7387150000 21.2558090000
249      17   3  0.61709999999999998188 45.6328820000 44.7513560000 22.3420900000
250      17   3  0.61709999999999998188 46.8430150000 46.9722300000 21.8169440000
251      17   3  0.11000000000000000056 44.8547750000 45.5956350000 19.2245250000
252      17   4  0.02999999999999999889 46.8461310000 45.1971260000 20.6459230000
253      17   4  0.02999999999999999889 45.7351490000 45.7826200000 18.5955470000
254      17   4  0.02999999999999999889 44.6731180000 44.5179940000 19.3102500000
255      17   4  0.02999999999999999889 43.9826510000 46.0791600000 18.7824690000
256      18   1 -0.20569999999999999396 32.5633260000 15.0318880000 32.7264370000
257      18   1 -0.20569999999999999396 30.9340310000 15.1625090000 34.1738100000
258      18   1 -0.20569999999999999396 31.4271910000 13.2463890000 33.2526850000
259      18   1 -0.20569999999999999396 34.3688620000 14.8635770000 36.5639700000
260      18   1 -0.20569999999999999396 34.4720350000 15.8637290000 34.6289110000
261      18   1 -0.20569999999999999396 32.7524190000 16.1864970000 35.9332090000
262      18   2 -0.40000000000000002220 33.9106460000 13.1631190000 34.4326740000
263      18   3  0.17000000000000001221 32.9274330000 14.0430580000 34.8904310000
264      18   3  0.61709999999999998188 31.9582850000 14.3947920000 33.7415650000
265      18   3  0.61709999999999998188 33.6413280000 15.2661730000 35.4967120000
266      18   3  0.11000000000000000056 33.7299750000 11.7912210000 34.7998680000
267      18   4  0.02999999999999999889 32.3130280000 13.6174060000 35.6954070000
268      18   4  0.02999999999999999889 33.7240550000 11.6805600000 35.8922750000
269      18   4  0.02999999999999999889 32.8048100000 11.3862090000 34.3736130000
270      18   4  0.02999999999999999889 34.5870080000 11.2590340000 34.3850410000
271      19   1 -0.20569999999999999396 47.9979210000 38.3809120000 28.0015650000
272      19   1 -0.20569999999999999396 46.3694210000 37.4312690000 29.1028010000
273      19   1 -0.20569999999999999396 46.1153180000 37.9360480000 26.9947640000
274      19   1 -0.20569999999999999396 48.8362190000 34.2201200000 28.0056600000
275      19   1 -0.20569999999999999396 49.7102030000 36.1770110000 28.4083150000
276      19   1 -0.20569999999999999396 48.1126230000 35.4126950000 29.6834680000
277      19   2 -0.40000000000000002220 48.0540560000 36.1565140000 26.1938810000
278      19   3  0.17000000000000001221 47.4994740000 36.0860970000 27.4737340000
279      19   3  0.61709999999999998188 47.0053430000 37.4813620000 27.9118290000
280      19   3  0.61709999999999998188 48.5626760000 35.4817390000 28.4105300000
281      19   3  0.11000000000000000056 47.2225890000 35.6721890000 25.1338490000
282      19   4  0.02999999999999999889 46.6293160000 35.4177950000 27.5271710000
283      19   4  0.02999999999999999889 46.9764250000 34.6133020000 25.2881020000
284      19   4  0.02999999999999999889 46.3047160000 36.2653980000 25.0485760000
285      19   4  0.02999999999999999889 47.8128740000 35.7793900000 24.2228710000
286      20   1 -0.20569999999999999396 26.2201750000 36.6110410000  5.4243610000
287      20   1 -0.20569999999999999396 26.9417670000 38.6665560000  5.2804360000
288      20   1 -0.20569999999999999396 26.6936350000 37.4659700000  3.4748290000
289      20   1 -0.20569999999999999396 22.7756190000 39.0884260000  5.5364130000
290      20   1 -0.20569999999999999396 23.7667950000 37.4305630000  6.5485720000
291      20   1 -0.20569999999999999396 24.6628310000 39.4201810000  6.5800770000
292      20   2 -0.40000000000000002220 23.9662290000 37.3028280000  3.7934180000
293      20   3  0.17000000000000001221 24.7162620000 38.2464950000  4.4987430000
294      20   3  0.61709999999999998188 26.1597360000 37.7349000000  4.6924180000
295      20   3  0.61709999999999998188 23.9781610000 38.5368450000  5.8194010000
296      20   3  0.11000000000000000056 23.7507110000 37.5961210000  2.4088210000
297      20   4  0.02999999999999999889 24.7956930000 39.2086970000  3.9748010000
298      20   4  0.02999999999999999889 23.2099240000 38.5447830000  2.2938250000
299      20   4  0.02999999999999999889 24.6988950000 37.6322720000  1.8599150000
300      20   4  0.02999999999999999889 23.1376720000 36.7792690000  2.0257490000
301      21   1 -0.20569999999999999396 54.6569140000 12.1697380000 46.2633600000
302      21   1 -0.20569999999999999396 55.3370030000 10.2456220000 47.0391250000
303      21   1 -0.20569999999999999396 56.2151970000 12.0982430000 47.7872990000
304      21   1 -0.20569999999999999396 51.8590340000 11.0375610000 49.2474850000
305      21   1 -0.20569999999999999396 52.0278430000 11.7431800000 47.1910290000
306      21   1 -0.20569999999999999396 52.7411550000  9.7503730000 47.7224030000
307      21   2 -0.40000000000000002220 53.8437850000 12.9315730000 48.9048080000
308      21   3  0.17000000000000001221 54.0263300000 11.6026690000 48.5159210000
309      21   3  0.61709999999999998188 55.0584210000 11.5253930000 47.3706380000
310      21   3  0.61709999999999998188 52.6446230000 11.0305750000 48.1460180000
311      21   3  0.11000000000000000056 54.5071870000 13.3172710000 50.1134080000
312      21   4  0.02999999999999999889 54.4130500000 10.9688660000 49.3254890000
313      21   4  0.02999999999999999889 54.1523750000 12.7136250000 50.9591940000
314      21   4  0.02999999999999999889 55.5950630000 13.2263610000 50.0138150000
315      21   4  0.02999999999999999889 54.2412250000 14.3626030000 50.2757450000
316      22   1 -0.20569999999999999396 23.5868850000 22.2538870000 29.6184000000
317      22   1 -0.20569999999999999396 22.1277050000 23.3782180000 30.7902480000
318      22   1 -0.20569999999999999396 24.0878640000 22.9201660000 31.6335520000
319      22   1 -0.20569999999999999396 23.8950880000 26.2896710000 28.3407400000
320      22   1 -0.20569999999999999396 23.6841120000 24.2422040000 27.6204810000
321      22   1 -0.20569999999999999396 22.0604550000 25.1777300000 28.7389550000
322      22   2 -0.40000000000000002220 25.4001600000 24.4687640000 29.7770550000
323      22   3  0.17000000000000001221 24.0229490000 24.5943930000 29.9721150000
324      22   3  0.61709999999999998188 23.4403450000 23.2627810000 30.4919620000
325      22   3  0.61709999999999998188 23.4042350000 25.0655100000 28.6422750000
326      22   3  0.11000000000000000056 26.2228140000 25.0530090000 30.7926720000
327      22   4  0.02999999999999999889 23.7640070000 25.3584900000 30.7176110000
328      22   4  0.02999999999999999889 26.0354660000 26.1322190000 30.8690870000
329      22   4  0.02999999999999999889 26.0561630000 24.5705260000 31.7627730000
330      22   4  0.02999999999999999889 27.2518540000 24.8842760000 30.4726500000