Generated by pymatgen.io.lammps.data.LammpsData

15467  atoms
14745  bonds
26363  angles
26529  dihedrals

   17  atom types
   16  bond types
   27  angle types
   22  dihedral types

-0.2500000000 60.2500000000  xlo xhi
-0.2500000000 60.2500000000  ylo yhi
-0.2500000000 60.2500000000  zlo zhi

Masses

1   18.998403
2   15.999400
3   12.010700
4   12.010700
5    1.007940
6   14.010000
7   32.060000
8   16.000000
9   12.010000
10  19.000000
11  16.000000
12  12.010000
13  12.010000
14   1.008000
15  32.060000
16  32.060000
17   6.941000

Pair Coeffs

1     0.0610  2.940000
2     0.1400  2.900000
3     0.0660  3.500000
4     0.0620  3.250000
5     0.0300  2.500000
6       0.17  3.249999
7       0.25  3.549340
8       0.21  2.959566
9      0.066  3.499450
10     0.053  2.948875
11      0.14  2.900000
12     0.066  3.500000
13     0.066  3.500000
14      0.03  2.500000
15  0.344001  3.590322
16  0.344001  3.590322
17  0.165057  1.506000

Bond Coeffs

1   367.00  1.332
2   320.00  1.410
3   320.00  1.410
4   268.00  1.529
5   340.00  1.090
6   441.80  1.323
7   235.40  1.818
8   637.10  1.442
9   372.00  1.570
10  320.00  1.410
11  320.00  1.380
12  268.00  1.529
13  340.00  1.090
14  340.00  1.090
15  157.87  2.133
16  154.36  2.117


Angle Coeffs

1    60.00  109.50
2    60.00  109.50
3    50.00  109.50
4    50.00  109.50
5    35.00  109.50
6    35.00  109.50
7    37.50  110.70
8    33.00  107.80
9    77.00  109.10
10   50.00  109.50
11   93.30  107.10
12   82.90  111.80
13  104.00  102.60
14  115.80  118.50
15   94.30  113.60
16   97.50  100.20
17   80.20  125.60
18   60.00  109.50
19   50.00  109.50
20   35.00  109.50
21   37.50  110.70
22   33.00  107.80
23   92.60  111.55
24   35.00  109.50
25   33.00  109.50
26   73.56  112.74
27   73.56  112.74


Dihedral Coeffs

1 3 0.062500000 1 0.000000000 -0.011000000 2 180.000000000 0.280500000 3 0.000000000
2 3 0.062500000 1 0.000000000 -0.011000000 2 180.000000000 0.280500000 3 0.000000000
3 1 0.370500000 3 0.000000000
4 1 0.370500000 3 0.000000000
5 2 0.518500000 1 0.000000000 -0.728500000 2 180.000000000
6 2 0.518500000 1 0.000000000 -0.728500000 2 180.000000000
7 1 0.032000000 3 0.000000000
8 1 0.173400000 3 0.000000000
9 1 0.158000000 3 0.000000000
10 1 -0.001800000 3 0.000000000
11 3 3.916460000 1 0.000000000 -1.245000000 2 180.000000000 -0.381800000 3 0.000000000
12 3 0.062500000 1 0.000000000 -0.011000000 2 180.000000000 0.280500000 3 0.000000000
13 3 0.062500000 1 0.000000000 -0.011000000 2 180.000000000 0.280500000 3 0.000000000
14 1 0.370500000 3 0.000000000
15 1 0.370500000 3 0.000000000
16 3 -0.533500000 1 0.000000000 -0.783500000 2 180.000000000 0.337500000 3 0.000000000
17 1 0.370500000 3 0.000000000
18 3 1.119000000 1 0.000000000 -1.163500000 2 180.000000000 -0.341500000 3 0.000000000
19 1 0.234000000 3 0.000000000
20 1 0.150000000 3 0.000000000
21 4 5.431700000 1 0.000000000 -3.590000000 2 180.000000000 1.055600000 3 0.000000000 0.058320000 4 180.000000000
22 4 5.431700000 1 0.000000000 -3.590000000 2 180.000000000 1.055600000 3 0.000000000 0.058320000 4 180.000000000


Atoms

1         1   1 -0.20569999999999999396 14.8246500000  5.1866980000 55.1597840000
2         1   1 -0.20569999999999999396 13.7751610000  4.8744300000 57.0514840000
3         1   1 -0.20569999999999999396 15.3843320000  6.3486680000 56.9178580000
4         1   1 -0.20569999999999999396 14.7933440000 10.3934880000 54.4342460000
5         1   1 -0.20569999999999999396 14.2369640000  9.2315110000 52.6751240000
6         1   1 -0.20569999999999999396 12.9091870000 10.8077860000 53.4041400000
7         1   2 -0.44500000000000000666 13.8894700000  7.8223440000 55.0676940000
8         1   3  0.14230000000000000981 13.2905950000  6.8549820000 55.8965840000
9         1   3  0.14230000000000000981 13.0001200000  8.8415840000 54.6756420000
10        1   4  0.53229999999999999538 14.3417280000  5.8142110000 56.2507990000
11        1   4  0.53229999999999999538 13.7577730000  9.8187400000 53.7896630000
12        1   5  0.08250000000000000389 12.4628570000  6.3360460000 55.3912590000
13        1   5  0.08250000000000000389 12.9222680000  7.2913160000 56.8366040000
14        1   5  0.08250000000000000389 12.1551080000  8.4471300000 54.0920120000
15        1   5  0.08250000000000000389 12.6136330000  9.4028150000 55.5383770000
16        2   1 -0.20569999999999999396 46.4276670000 29.2179880000 43.3265540000
17        2   1 -0.20569999999999999396 44.2694870000 29.4691410000 43.0885410000
18        2   1 -0.20569999999999999396 45.2122250000 29.8423260000 45.0257150000
19        2   1 -0.20569999999999999396 48.0571710000 33.6330960000 45.6695420000
20        2   1 -0.20569999999999999396 49.2746950000 33.0069960000 43.9725170000
21        2   1 -0.20569999999999999396 48.4468720000 35.0294350000 44.0321120000
22        2   2 -0.44500000000000000666 46.6875830000 31.9421450000 43.9105820000
23        2   3  0.14230000000000000981 45.5400110000 31.4290940000 43.2770550000
24        2   3  0.14230000000000000981 46.9382620000 33.2910670000 43.5926720000
25        2   4  0.53229999999999999538 45.3749670000 29.9756700000 43.6940360000
26        2   4  0.53229999999999999538 48.1940500000 33.7281240000 44.3314610000
27        2   5  0.08250000000000000389 45.6291920000 31.4547150000 42.1810670000
28        2   5  0.08250000000000000389 44.6297120000 31.9683740000 43.5774250000
29        2   5  0.08250000000000000389 47.1170330000 33.4329100000 42.5164820000
30        2   5  0.08250000000000000389 46.1163890000 33.9473690000 43.9127610000
31        3   1 -0.20569999999999999396 16.8640950000 32.5197270000 50.8675170000
32        3   1 -0.20569999999999999396 15.7510580000 31.4389960000 49.3278280000
33        3   1 -0.20569999999999999396 17.8658950000 30.9998100000 49.6673110000
34        3   1 -0.20569999999999999396 19.2919610000 28.7852090000 53.6598100000
35        3   1 -0.20569999999999999396 18.2930960000 30.3069620000 54.8601410000
36        3   1 -0.20569999999999999396 17.8438820000 28.1927430000 55.1878340000
37        3   2 -0.44500000000000000666 17.2753810000 30.1275110000 52.2595750000
38        3   3  0.14230000000000000981 16.2756690000 30.2467440000 51.2757770000
39        3   3  0.14230000000000000981 16.9759130000 29.1594980000 53.2377190000
40        3   4  0.53229999999999999538 16.7087190000 31.3148430000 50.2832110000
41        3   4  0.53229999999999999538 18.1216400000 29.1238430000 54.2376540000
42        3   5  0.08250000000000000389 15.3121130000 30.5592120000 51.7044050000
43        3   5  0.08250000000000000389 16.1350770000 29.3093780000 50.7178620000
44        3   5  0.08250000000000000389 16.0570920000 29.4050700000 53.7906440000
45        3   5  0.08250000000000000389 16.8794460000 28.1540690000 52.8035880000
46        4   1 -0.20569999999999999396 29.4586590000 50.2850810000 13.5548870000
47        4   1 -0.20569999999999999396 30.5755730000 50.7941530000 11.7463470000
48        4   1 -0.20569999999999999396 30.0924080000 52.3430080000 13.2120430000
49        4   1 -0.20569999999999999396 32.2194160000 52.4030140000 17.4957800000
50        4   1 -0.20569999999999999396 31.5827920000 50.3462310000 17.8401810000
51        4   1 -0.20569999999999999396 33.6939310000 50.8799750000 18.0333350000
52        4   2 -0.44500000000000000666 31.6516020000 51.0267730000 15.1266930000
53        4   3  0.14230000000000000981 31.7866290000 50.7552270000 13.7520910000
54        4   3  0.14230000000000000981 32.8311990000 50.7838370000 15.8567800000
55        4   4  0.53229999999999999538 30.4575780000 51.0524920000 13.0747370000
56        4   4  0.53229999999999999538 32.5619400000 51.1110420000 17.3176940000
57        4   5  0.08250000000000000389 32.0295150000 49.6991850000 13.5634610000
58        4   5  0.08250000000000000389 32.5510930000 51.3906430000 13.2814210000
59        4   5  0.08250000000000000389 33.1383660000 49.7289150000 15.8015400000
60        4   5  0.08250000000000000389 33.6611270000 51.4207620000 15.5188290000
61        5   1 -0.20569999999999999396 13.3761340000 54.7716750000 17.5420860000
62        5   1 -0.20569999999999999396 12.1709300000 52.9833110000 17.8980450000
63        5   1 -0.20569999999999999396 14.3000740000 52.7995470000 17.4358280000
64        5   1 -0.20569999999999999396 17.6150310000 54.1809490000 20.5950930000
65        5   1 -0.20569999999999999396 16.6932010000 56.1542010000 20.6988430000
66        5   1 -0.20569999999999999396 17.0349580000 55.0137200000 22.5323110000
67        5   2 -0.44500000000000000666 14.9361030000 54.1761230000 19.7874130000
68        5   3  0.14230000000000000981 13.6692340000 53.5940670000 19.5931110000
69        5   3  0.14230000000000000981 15.2974480000 54.2736180000 21.1451390000
70        5   4  0.53229999999999999538 13.3919710000 53.5438460000 18.0984010000
71        5   4  0.53229999999999999538 16.6749910000 54.9137170000 21.2256510000
72        5   5  0.08250000000000000389 12.8688830000 54.1849680000 20.0622290000
73        5   5  0.08250000000000000389 13.6280490000 52.5636240000 19.9754480000
74        5   5  0.08250000000000000389 14.5999920000 54.9088740000 21.7110620000
75        5   5  0.08250000000000000389 15.3587840000 53.2864100000 21.6250590000
76        6   1 -0.20569999999999999396 33.9552840000 22.5330480000 34.5753000000
77        6   1 -0.20569999999999999396 33.7483850000 23.0534660000 32.4625230000
78        6   1 -0.20569999999999999396 31.9740860000 22.8600720000 33.7255050000
79        6   1 -0.20569999999999999396 31.0403550000 26.0791150000 37.1378470000
80        6   1 -0.20569999999999999396 33.0202500000 25.7496700000 37.9897500000
81        6   1 -0.20569999999999999396 32.3803350000 27.7748840000 37.4719520000
82        6   2 -0.44500000000000000666 32.8524760000 25.0008950000 35.2986390000
83        6   3  0.14230000000000000981 33.3688500000 24.7724640000 34.0091910000
84        6   3  0.14230000000000000981 32.9109620000 26.3536720000 35.6860280000
85        6   4  0.53229999999999999538 33.2529030000 23.2865310000 33.7056880000
86        6   4  0.53229999999999999538 32.3290200000 26.4727160000 37.0863870000
87        6   5  0.08250000000000000389 34.4315780000 25.0467510000 33.9372660000
88        6   5  0.08250000000000000389 32.8032050000 25.3161270000 33.2383680000
89        6   5  0.08250000000000000389 33.9454250000 26.7263960000 35.7210480000
90        6   5  0.08250000000000000389 32.3167490000 26.9966820000 35.0211110000
91        7   1 -0.20569999999999999396 45.7267280000 13.2985180000 12.2000730000
92        7   1 -0.20569999999999999396 43.9149560000 12.5442980000 11.2377300000
93        7   1 -0.20569999999999999396 45.3692650000 13.7030480000 10.0875350000
94        7   1 -0.20569999999999999396 49.6532110000 11.8686540000  9.0100460000
95        7   1 -0.20569999999999999396 50.0122200000 11.4672070000 11.1229140000
96        7   1 -0.20569999999999999396 50.2022640000  9.8539520000  9.6599070000
97        7   2 -0.44500000000000000666 47.2939160000 11.7156780000 10.5064930000
98        7   3  0.14230000000000000981 45.9213580000 11.4639550000 10.6914760000
99        7   3  0.14230000000000000981 48.0261550000 10.5626880000 10.1630750000
100       7   4  0.53229999999999999538 45.2414050000 12.7746130000 11.0567070000
101       7   4  0.53229999999999999538 49.4845740000 10.9593850000  9.9913810000
102       7   5  0.08250000000000000389 45.7404400000 10.7533230000 11.5112740000
103       7   5  0.08250000000000000389 45.4463850000 11.0852090000  9.7746100000
104       7   5  0.08250000000000000389 47.9786380000  9.7963090000 10.9508990000
105       7   5  0.08250000000000000389 47.6839100000 10.1273300000  9.2133400000
106       8   1 -0.20569999999999999396 40.5478180000  7.3398720000 31.2128140000
107       8   1 -0.20569999999999999396 42.6066170000  6.6104270000 31.1308110000
108       8   1 -0.20569999999999999396 41.7063360000  7.5592680000 29.3787090000
109       8   1 -0.20569999999999999396 40.7729440000 12.2503290000 29.3487360000
110       8   1 -0.20569999999999999396 39.6115460000 12.0304800000 31.1809690000
111       8   1 -0.20569999999999999396 41.2336750000 13.4930840000 31.0883030000
112       8   2 -0.44500000000000000666 41.4506190000  9.9559980000 30.7998840000
113       8   3  0.14230000000000000981 42.3191840000  8.9340550000 31.2273480000
114       8   3  0.14230000000000000981 41.8600290000 11.2385380000 31.2133690000
115       8   4  0.53229999999999999538 41.7758950000  7.6053890000 30.7243200000
116       8   4  0.53229999999999999538 40.8493520000 12.2502900000 30.6949860000
117       8   5  0.08250000000000000389 42.3791290000  8.8773590000 32.3241570000
118       8   5  0.08250000000000000389 43.3320160000  9.0579050000 30.8168320000
119       8   5  0.08250000000000000389 41.8892440000 11.3266920000 32.3095620000
120       8   5  0.08250000000000000389 42.8435290000 11.5074440000 30.8021740000
121       9   1 -0.20569999999999999396 22.7256180000 12.6663040000  2.0134710000
122       9   1 -0.20569999999999999396 22.0963530000 13.2269040000 -0.0032650000
123       9   1 -0.20569999999999999396 20.8450290000 11.9082320000  1.2116260000
124       9   1 -0.20569999999999999396 18.5319550000 13.5849670000  5.0478240000
125       9   1 -0.20569999999999999396 20.4130010000 14.3400740000  5.8514020000
126       9   1 -0.20569999999999999396 18.7052910000 15.6864870000  5.6278000000
127       9   2 -0.44500000000000000666 20.4853410000 13.9599590000  3.0799090000
128       9   3  0.14230000000000000981 20.9374590000 14.2232480000  1.7730930000
129       9   3  0.14230000000000000981 19.8019490000 15.0472210000  3.6581260000
130       9   4  0.53229999999999999538 21.6551740000 12.9848490000  1.2585010000
131       9   4  0.53229999999999999538 19.3662210000 14.6442630000  5.0586970000
132       9   5  0.08250000000000000389 21.6514730000 15.0594470000  1.7456430000
133       9   5  0.08250000000000000389 20.1054260000 14.4369100000  1.0862450000
134       9   5  0.08250000000000000389 20.4456710000 15.9345430000  3.7505570000
135       9   5  0.08250000000000000389 18.8987810000 15.3127000000  3.0902600000
136      10   1 -0.20569999999999999396 45.3290000000 42.6610500000 19.2334760000
137      10   1 -0.20569999999999999396 44.6724610000 42.2128650000 21.2695400000
138      10   1 -0.20569999999999999396 43.3468610000 43.2810530000 19.8975260000
139      10   1 -0.20569999999999999396 41.3900490000 41.0428140000 16.1506150000
140      10   1 -0.20569999999999999396 43.3724140000 40.4256460000 15.4845880000
141      10   1 -0.20569999999999999396 41.8041530000 38.9294980000 15.7695350000
142      10   2 -0.44500000000000000666 43.2829730000 41.0491220000 18.2111550000
143      10   3  0.14230000000000000981 43.7017220000 40.9492440000 19.5513690000
144      10   3  0.14230000000000000981 42.7412730000 39.8494750000 17.7102530000
145      10   4  0.53229999999999999538 44.2647810000 42.2967640000 19.9764660000
146      10   4  0.53229999999999999538 42.3285700000 40.0813560000 16.2646590000
147      10   5  0.08250000000000000389 44.4960970000 40.1992900000 19.6791870000
148      10   5  0.08250000000000000389 42.8666250000 40.7083420000 20.2253640000
149      10   5  0.08250000000000000389 43.4763440000 39.0310510000 17.7209350000
150      10   5  0.08250000000000000389 41.8460670000 39.5394030000 18.2680390000
151      11   1 -0.20569999999999999396 54.3751120000 50.7571180000  8.0029970000
152      11   1 -0.20569999999999999396 55.7023620000 52.3618880000  7.3392280000
153      11   1 -0.20569999999999999396 53.5332220000 52.6133150000  7.2284040000
154      11   1 -0.20569999999999999396 50.9216720000 53.0906680000 11.2071110000
155      11   1 -0.20569999999999999396 51.7609180000 51.2327000000 11.9803370000
156      11   1 -0.20569999999999999396 51.8700130000 53.0586240000 13.1774980000
157      11   2 -0.44500000000000000666 53.3615970000 52.4174850000 10.0143760000
158      11   3  0.14230000000000000981 54.5800850000 52.6995230000  9.3684350000
159      11   3  0.14230000000000000981 53.2973840000 52.9331580000 11.3233660000
160      11   4  0.53229999999999999538 54.5307880000 52.0958400000  7.9731970000
161      11   4  0.53229999999999999538 51.9439850000 52.5663420000 11.9129340000
162      11   5  0.08250000000000000389 55.4372730000 52.2550930000  9.8952270000
163      11   5  0.08250000000000000389 54.7456760000 53.7813080000  9.2588460000
164      11   5  0.08250000000000000389 54.0731770000 52.5016970000 11.9731720000
165      11   5  0.08250000000000000389 53.3821590000 54.0291930000 11.3369350000
166      12   1 -0.20569999999999999396 53.7860660000 52.0337000000 23.4008150000
167      12   1 -0.20569999999999999396 52.7334200000 53.3064400000 21.9691940000
168      12   1 -0.20569999999999999396 52.8850310000 53.9041830000 24.0669030000
169      12   1 -0.20569999999999999396 57.0779270000 55.2642030000 25.9238190000
170      12   1 -0.20569999999999999396 57.9782230000 53.3922740000 25.2607910000
171      12   1 -0.20569999999999999396 58.8865290000 55.2984970000 24.6947580000
172      12   2 -0.44500000000000000666 55.6686430000 54.0592350000 23.8283480000
173      12   3  0.14230000000000000981 54.8303920000 54.0570860000 22.6974950000
174      12   3  0.14230000000000000981 56.8906240000 54.7243580000 23.6095550000
175      12   4  0.53229999999999999538 53.5513440000 53.3150020000 23.0537260000
176      12   4  0.53229999999999999538 57.7035850000 54.6597110000 24.8935910000
177      12   5  0.08250000000000000389 55.2918560000 53.5381180000 21.8445470000
178      12   5  0.08250000000000000389 54.5514170000 55.0760310000 22.3915300000
179      12   5  0.08250000000000000389 57.4820610000 54.2457940000 22.8149220000
180      12   5  0.08250000000000000389 56.7415070000 55.7848820000 23.3611260000
181      13   1 -0.20569999999999999396 36.9824630000 55.2927730000 34.7842470000
182      13   1 -0.20569999999999999396 35.1234780000 55.4412520000 33.6442460000
183      13   1 -0.20569999999999999396 36.9571910000 54.7542460000 32.6715250000
184      13   1 -0.20569999999999999396 38.8369760000 50.4866330000 33.7355080000
185      13   1 -0.20569999999999999396 38.8654820000 51.0263550000 35.8478880000
186      13   1 -0.20569999999999999396 37.8836820000 49.1808210000 35.2082230000
187      13   2 -0.44500000000000000666 37.0280200000 52.5268000000 34.3635400000
188      13   3  0.14230000000000000981 35.8529650000 53.2813180000 34.1862060000
189      13   3  0.14230000000000000981 36.7765710000 51.1850280000 34.7098320000
190      13   4  0.53229999999999999538 36.2502260000 54.7027300000 33.8183380000
191      13   4  0.53229999999999999538 38.1133100000 50.4777410000 34.8732500000
192      13   5  0.08250000000000000389 35.2522740000 53.3292700000 35.1063520000
193      13   5  0.08250000000000000389 35.2309040000 52.8862500000 33.3697180000
194      13   5  0.08250000000000000389 36.2353770000 51.1017220000 35.6639970000
195      13   5  0.08250000000000000389 36.2129100000 50.6581270000 33.9266810000
196      14   1 -0.20569999999999999396 31.5088900000  3.5468630000  8.0401770000
197      14   1 -0.20569999999999999396 32.0089920000  5.6448740000  7.6856070000
198      14   1 -0.20569999999999999396 33.0870440000  4.0641840000  6.6273600000
199      14   1 -0.20569999999999999396 30.9167430000  1.4648300000  3.2492950000
200      14   1 -0.20569999999999999396 29.3403290000  0.9446510000  4.6630110000
201      14   1 -0.20569999999999999396 28.8232980000  1.8283700000  2.7314780000
202      14   2 -0.44500000000000000666 30.7138080000  3.2777510000  5.3708890000
203      14   3  0.14230000000000000981 30.8430030000  4.5406710000  5.9790340000
204      14   3  0.14230000000000000981 29.7761520000  3.2633560000  4.3201320000
205      14   4  0.53229999999999999538 31.8752830000  4.4309740000  7.0907530000
206      14   4  0.53229999999999999538 29.7259260000  1.8551860000  3.7470960000
207      14   5  0.08250000000000000389 29.8987560000  4.8778440000  6.4312630000
208      14   5  0.08250000000000000389 31.1956570000  5.3036040000  5.2696270000
209      14   5  0.08250000000000000389 28.7645330000  3.5186310000  4.6690180000
210      14   5  0.08250000000000000389 30.0614570000  3.9455500000  3.5065740000
211      15   1 -0.20569999999999999396 32.3496220000  3.7890080000 10.8030720000
212      15   1 -0.20569999999999999396 32.6663460000  5.5907600000 11.9992530000
213      15   1 -0.20569999999999999396 34.1554550000  3.9897800000 12.0084350000
214      15   1 -0.20569999999999999396 36.8342420000  3.1213120000  8.1421670000
215      15   1 -0.20569999999999999396 35.0283910000  2.9171270000  6.9373980000
216      15   1 -0.20569999999999999396 36.5943910000  4.3141160000  6.3248900000
217      15   2 -0.44500000000000000666 34.6165130000  4.3940360000  9.2783350000
218      15   3  0.14230000000000000981 33.9784080000  5.3669660000 10.0706270000
219      15   3  0.14230000000000000981 35.2936300000  4.9401110000  8.1707200000
220      15   4  0.53229999999999999538 33.2862090000  4.6611990000 11.2266150000
221      15   4  0.53229999999999999538 35.9375790000  3.7993500000  7.3975280000
222      15   5  0.08250000000000000389 33.2109920000  5.9175930000  9.5069950000
223      15   5  0.08250000000000000389 34.6955100000  6.0832880000 10.4976380000
224      15   5  0.08250000000000000389 34.6080450000  5.4623600000  7.4869860000
225      15   5  0.08250000000000000389 36.0932300000  5.6292710000  8.4779040000
226      16   1 -0.20569999999999999396 15.0684840000 33.0018840000 32.5847130000
227      16   1 -0.20569999999999999396 16.0428020000 33.6185820000 34.4415540000
228      16   1 -0.20569999999999999396 16.8185020000 31.9191490000 33.3053840000
229      16   1 -0.20569999999999999396 18.9666670000 32.5781240000 29.0829070000
230      16   1 -0.20569999999999999396 17.2153460000 33.6579100000 28.3609670000
231      16   1 -0.20569999999999999396 19.1915680000 34.5852650000 28.2440920000
232      16   2 -0.44500000000000000666 17.3940080000 33.6122500000 31.1532580000
233      16   3  0.14230000000000000981 17.1709090000 34.1157430000 32.4487200000
234      16   3  0.14230000000000000981 18.2254330000 34.4398600000 30.3739690000
235      16   4  0.53229999999999999538 16.2653830000 33.1431090000 33.1886910000
236      16   4  0.53229999999999999538 18.3907020000 33.7949310000 29.0062760000
237      16   5  0.08250000000000000389 16.6668840000 35.0931690000 32.4288640000
238      16   5  0.08250000000000000389 18.1057610000 34.2037240000 33.0214330000
239      16   5  0.08250000000000000389 17.7863300000 35.4371130000 30.2225150000
240      16   5  0.08250000000000000389 19.2262840000 34.5482400000 30.8158010000
241      17   1 -0.20569999999999999396 55.5478200000 34.2337490000 58.5415390000
242      17   1 -0.20569999999999999396 56.5440520000 32.3842220000 57.9380140000
243      17   1 -0.20569999999999999396 54.7769950000 33.0838570000 56.8569560000
244      17   1 -0.20569999999999999396 54.9858190000 36.9847650000 54.0969790000
245      17   1 -0.20569999999999999396 55.7534150000 38.1355860000 55.7824060000
246      17   1 -0.20569999999999999396 56.8496150000 38.1102480000 53.8911630000
247      17   2 -0.44500000000000000666 56.1632130000 35.3818520000 56.0650850000
248      17   3  0.14230000000000000981 56.8372380000 34.2398610000 56.5373600000
249      17   3  0.14230000000000000981 56.9400620000 36.1568110000 55.1822260000
250      17   4  0.53229999999999999538 55.9041530000 33.4895920000 57.4754450000
251      17   4  0.53229999999999999538 56.1098580000 37.3537070000 54.7440070000
252      17   5  0.08250000000000000389 57.7424020000 34.5018410000 57.1046730000
253      17   5  0.08250000000000000389 57.1094020000 33.5564970000 55.7196620000
254      17   5  0.08250000000000000389 57.8508260000 36.5405510000 55.6654600000
255      17   5  0.08250000000000000389 57.2186110000 35.5944460000 54.2795520000
256      18   1 -0.20569999999999999396 30.6414820000 22.0440340000 45.9740630000
257      18   1 -0.20569999999999999396 29.7085590000 22.6821060000 47.8448890000
258      18   1 -0.20569999999999999396 30.0334670000 24.1220330000 46.2319070000
259      18   1 -0.20569999999999999396 27.4874920000 23.8799870000 42.1899280000
260      18   1 -0.20569999999999999396 28.0982060000 21.8030150000 41.9301700000
261      18   1 -0.20569999999999999396 25.9753040000 22.3246260000 41.9125400000
262      18   2 -0.44500000000000000666 28.2978090000 22.6750570000 44.5816960000
263      18   3  0.14230000000000000981 28.3028050000 22.5022240000 45.9786940000
264      18   3  0.14230000000000000981 27.0523900000 22.3824320000 43.9928000000
265      18   4  0.53229999999999999538 29.6913250000 22.8450760000 46.4963980000
266      18   4  0.53229999999999999538 27.1719770000 22.6044500000 42.4927200000
267      18   5  0.08250000000000000389 28.0861240000 21.4626290000 46.2652070000
268      18   5  0.08250000000000000389 27.5857260000 23.1706030000 46.4774500000
269      18   5  0.08250000000000000389 26.7583780000 21.3345510000 44.1533090000
270      18   5  0.08250000000000000389 26.2568680000 23.0429620000 44.3663090000
271      19   1 -0.20569999999999999396  1.4341420000 54.0186350000 45.0111630000
272      19   1 -0.20569999999999999396  0.1329970000 55.7217360000 45.4400450000
273      19   1 -0.20569999999999999396  0.4918520000 54.2005220000 46.9690310000
274      19   1 -0.20569999999999999396  4.7721100000 53.8061350000 49.0671300000
275      19   1 -0.20569999999999999396  5.7141330000 53.6207990000 47.1094530000
276      19   1 -0.20569999999999999396  6.4146340000 55.1407210000 48.5159510000
277      19   2 -0.44500000000000000666  3.2097880000 54.8647680000 47.0013440000
278      19   3  0.14230000000000000981  2.2449130000 55.7321940000 46.4553710000
279      19   3  0.14230000000000000981  4.3480970000 55.5382490000 47.4852560000
280      19   4  0.53229999999999999538  1.0717760000 54.8948470000 45.9694140000
281      19   4  0.53229999999999999538  5.3107930000 54.5024480000 48.0457600000
282      19   5  0.08250000000000000389  2.6361850000 56.2921460000 45.5933060000
283      19   5  0.08250000000000000389  1.8617410000 56.4423350000 47.2027460000
284      19   5  0.08250000000000000389  4.8722610000 56.0844900000 46.6870490000
285      19   5  0.08250000000000000389  4.0975290000 56.2358980000 48.2971470000
286      20   1 -0.20569999999999999396 46.7357620000 28.6320160000 17.8768330000
287      20   1 -0.20569999999999999396 45.1399650000 27.6616250000 19.0122810000
288      20   1 -0.20569999999999999396 44.6929720000 29.3818120000 17.7387750000
289      20   1 -0.20569999999999999396 44.8765810000 29.0084450000 12.9737930000
290      20   1 -0.20569999999999999396 46.9205790000 28.2618780000 13.1115150000
291      20   1 -0.20569999999999999396 45.4129920000 27.1146560000 12.0205700000
292      20   2 -0.44500000000000000666 45.4734450000 27.9225330000 15.4824930000
293      20   3  0.14230000000000000981 45.1592420000 27.2878640000 16.6990330000
294      20   3  0.14230000000000000981 45.2503830000 27.1042140000 14.3581730000
295      20   4  0.53229999999999999538 45.4398760000 28.2632870000 17.8318830000
296      20   4  0.53229999999999999538 45.6237350000 27.8946590000 13.1133280000
297      20   5  0.08250000000000000389 45.7762770000 26.3930320000 16.8673830000
298      20   5  0.08250000000000000389 44.0968030000 27.0087430000 16.7538540000
299      20   5  0.08250000000000000389 45.8747840000 26.1987020000 14.3790180000
300      20   5  0.08250000000000000389 44.1941420000 26.8136200000 14.2655750000
301      21   1 -0.20569999999999999396 48.1672730000 47.0054340000 20.6467400000
302      21   1 -0.20569999999999999396 46.6631480000 46.4187410000 19.1733530000
303      21   1 -0.20569999999999999396 48.1219400000 44.9589730000 19.8956180000
304      21   1 -0.20569999999999999396 47.9186090000 43.3151520000 24.3827860000
305      21   1 -0.20569999999999999396 47.9673950000 45.3614520000 25.1341430000
306      21   1 -0.20569999999999999396 46.3669340000 44.0095460000 25.7586230000
307      21   2 -0.44500000000000000666 47.0849320000 45.1934850000 22.4838720000
308      21   3  0.14230000000000000981 46.3597440000 45.6241610000 21.3568760000
309      21   3  0.14230000000000000981 46.2599850000 44.8174910000 23.5616420000
310      21   4  0.53229999999999999538 47.3518090000 46.0012660000 20.2673110000
311      21   4  0.53229999999999999538 47.1522290000 44.3748420000 24.7113370000
312      21   5  0.08250000000000000389 45.7492280000 46.5125480000 21.5755930000
313      21   5  0.08250000000000000389 45.7112770000 44.8302850000 20.9582020000
314      21   5  0.08250000000000000389 45.6446070000 45.6561410000 23.9197460000
315      21   5  0.08250000000000000389 45.6054900000 43.9731750000 23.3019700000
316      22   1 -0.20569999999999999396 30.3914790000 11.1915690000 34.2315180000
317      22   1 -0.20569999999999999396 31.8593780000  9.8179220000 33.3737090000
318      22   1 -0.20569999999999999396 31.5820410000 11.8082260000 32.5120590000
319      22   1 -0.20569999999999999396 32.9872510000 15.7162840000 34.8849560000
320      22   1 -0.20569999999999999396 31.7940100000 15.1014720000 36.6032230000
321      22   1 -0.20569999999999999396 33.9179630000 15.5524880000 36.8572010000
322      22   2 -0.44500000000000000666 32.4416590000 12.9720410000 34.9070610000
323      22   3  0.14230000000000000981 32.7051660000 11.6223050000 34.6066030000
324      22   3  0.14230000000000000981 33.3948970000 13.5420200000 35.7730630000
325      22   4  0.53229999999999999538 31.6155870000 11.1207220000 33.6713030000
326      22   4  0.53229999999999999538 33.0049020000 14.9911370000 36.0216520000
327      22   5  0.08250000000000000389 32.6906420000 10.9902500000 35.5066540000
328      22   5  0.08250000000000000389 33.6698830000 11.4968860000 34.0934920000