Generated by pymatgen.io.lammps.data.LammpsData

16677  atoms
15713  bonds
26968  angles
24472  dihedrals
  605  impropers

   17  atom types
   16  bond types
   24  angle types
   20  dihedral types
    1  improper types

-0.2500000000 60.2500000000  xlo xhi
-0.2500000000 60.2500000000  ylo yhi
-0.2500000000 60.2500000000  zlo zhi

Masses

1   14.01000
2   32.06000
3   16.00000
4   12.01000
5   19.00000
6   16.00000
7   12.01000
8   12.01000
9    1.00800
10  15.99940
11  15.99940
12  12.01070
13  12.01070
14   1.00794
15  32.06000
16  32.06000
17   6.94100

Pair Coeffs

1       0.17  3.249999
2       0.25  3.549340
3       0.21  2.959566
4      0.066  3.499450
5      0.053  2.948875
6       0.14  2.900000
7      0.066  3.500000
8      0.066  3.500000
9       0.03  2.500000
10    0.1700  3.000000
11    0.2100  2.960000
12    0.0660  3.500000
13    0.1050  3.750000
14    0.0150  2.420000
15  0.344001  3.590322
16  0.344001  3.590322
17  0.165057  1.506000

Bond Coeffs

1   441.80  1.323
2   235.40  1.818
3   637.10  1.442
4   372.00  1.570
5   320.00  1.410
6   320.00  1.380
7   268.00  1.529
8   340.00  1.090
9   340.00  1.090
10  214.00  1.327
11  320.00  1.410
12  570.00  1.229
13  317.00  1.522
14  340.00  1.090
15  157.87  2.133
16  154.36  2.117


Angle Coeffs

1    93.30  107.10
2    82.90  111.80
3   104.00  102.60
4   115.80  118.50
5    94.30  113.60
6    97.50  100.20
7    80.20  125.60
8    60.00  109.50
9    50.00  109.50
10   35.00  109.50
11   37.50  110.70
12   33.00  107.80
13   92.60  111.55
14   35.00  109.50
15   33.00  109.50
16   83.00  116.90
17   35.00  109.50
18   33.00  107.80
19   83.00  123.40
20   81.00  111.40
21   80.00  120.40
22   35.00  109.50
23   73.56  112.74
24   73.56  112.74


Dihedral Coeffs

1 1 0.173400000 3 0.000000000
2 1 0.158000000 3 0.000000000
3 1 -0.001800000 3 0.000000000
4 3 3.916460000 1 0.000000000 -1.245000000 2 180.000000000 -0.381800000 3 0.000000000
5 3 0.062500000 1 0.000000000 -0.011000000 2 180.000000000 0.280500000 3 0.000000000
6 3 0.062500000 1 0.000000000 -0.011000000 2 180.000000000 0.280500000 3 0.000000000
7 1 0.370500000 3 0.000000000
8 1 0.370500000 3 0.000000000
9 3 -0.533500000 1 0.000000000 -0.783500000 2 180.000000000 0.337500000 3 0.000000000
10 1 0.370500000 3 0.000000000
11 3 1.119000000 1 0.000000000 -1.163500000 2 180.000000000 -0.341500000 3 0.000000000
12 1 0.234000000 3 0.000000000
13 1 0.150000000 3 0.000000000
14 1 3.000000000 2 180.000000000
15 2 1.631500000 1 0.000000000 2.920000000 2 180.000000000
16 1 0.080500000 3 0.000000000
17 1 0.000000000 1 0.000000000
18 1 0.000000000 1 0.000000000
19 4 5.431700000 1 0.000000000 -3.590000000 2 180.000000000 1.055600000 3 0.000000000 0.058320000 4 180.000000000
20 4 5.431700000 1 0.000000000 -3.590000000 2 180.000000000 1.055600000 3 0.000000000 0.058320000 4 180.000000000


Improper Coeffs

1 10.500000000 -1 2


Atoms

1         1   1 -0.47982551799345701804 53.1300650000 44.0139630000  6.1864640000
2         1   2  0.74154852780806990165 53.1972500000 45.5841980000  6.5927120000
3         1   3 -0.38531443111595786721 51.9809720000 46.0866560000  7.2479870000
4         1   3 -0.38531443111595786721 54.4989070000 46.0761380000  7.0720960000
5         1   4  0.25445292620865139765 53.0726570000 46.2289460000  4.8232420000
6         1   5 -0.11632133769538351153 51.9400900000 45.8381820000  4.2142080000
7         1   5 -0.11632133769538351153 54.1158460000 45.8378060000  4.0714780000
8         1   5 -0.11632133769538351153 53.0757780000 47.5793710000  4.8609420000
9         1   2  0.74154852780806990165 53.5298640000 42.8155410000  7.1787780000
10        1   3 -0.38531443111595786721 52.8202430000 41.5990440000  6.7632490000
11        1   3 -0.38531443111595786721 53.6060290000 43.1621120000  8.6052920000
12        1   4  0.25445292620865139765 55.3196960000 42.4214190000  6.7102440000
13        1   5 -0.11632133769538351153 55.4265550000 42.1093280000  5.4036290000
14        1   5 -0.11632133769538351153 56.1434220000 43.4496110000  6.9629860000
15        1   5 -0.11632133769538351153 55.7520670000 41.3571270000  7.4228620000
16        2   1 -0.47982551799345701804 23.4993970000 40.4152260000 22.6796670000
17        2   2  0.74154852780806990165 23.5659320000 41.6914170000 23.6807160000
18        2   3 -0.38531443111595786721 23.0127530000 42.9290880000 23.1120800000
19        2   3 -0.38531443111595786721 23.3248910000 41.4127010000 25.1056160000
20        2   4  0.25445292620865139765 25.4356070000 41.9164290000 23.5544820000
21        2   5 -0.11632133769538351153 25.8395360000 42.1497720000 22.2940370000
22        2   5 -0.11632133769538351153 26.1029060000 40.8481590000 24.0234090000
23        2   5 -0.11632133769538351153 25.7876270000 42.9834860000 24.3045130000
24        2   2  0.74154852780806990165 22.2297800000 39.4383500000 22.5591300000
25        2   3 -0.38531443111595786721 22.2362170000 38.8141040000 21.2300830000
26        2   3 -0.38531443111595786721 20.9699100000 39.9520390000 23.1156410000
27        2   4  0.25445292620865139765 22.6690190000 37.9877420000 23.6910140000
28        2   5 -0.11632133769538351153 23.8348450000 37.4181200000 23.3270890000
29        2   5 -0.11632133769538351153 22.7707930000 38.3646280000 24.9744400000
30        2   5 -0.11632133769538351153 21.7072430000 37.0411800000 23.6104450000
31        3   1 -0.47982551799345701804 23.5106240000  2.7634910000 34.6369750000
32        3   2  0.74154852780806990165 22.3995360000  2.5047570000 33.4821030000
33        3   3 -0.38531443111595786721 21.2484330000  3.4171870000 33.5422240000
34        3   3 -0.38531443111595786721 22.9157730000  2.1233580000 32.1576560000
35        3   4  0.25445292620865139765 21.7533790000  0.8914370000 34.2182610000
36        3   5 -0.11632133769538351153 21.2674920000  1.0537310000 35.4608000000
37        3   5 -0.11632133769538351153 22.7021570000 -0.0598330000 34.2541520000
38        3   5 -0.11632133769538351153 20.7472770000  0.4401570000 33.4377590000
39        3   2  0.74154852780806990165 24.7173220000  3.8147780000 34.4976230000
40        3   3 -0.38531443111595786721 25.1379710000  4.2345980000 35.8403420000
41        3   3 -0.38531443111595786721 24.5742650000  4.8182430000 33.4329880000
42        3   4  0.25445292620865139765 26.1758560000  2.7529290000 33.9288440000
43        3   5 -0.11632133769538351153 26.4198600000  1.7509300000 34.7963240000
44        3   5 -0.11632133769538351153 25.9641040000  2.2152390000 32.7182110000
45        3   5 -0.11632133769538351153 27.2909400000  3.5137760000 33.8568240000
46        4   1 -0.47982551799345701804 42.3381460000  7.2209030000 51.5746710000
47        4   2  0.74154852780806990165 41.2361690000  7.6359250000 50.4572670000
48        4   3 -0.38531443111595786721 41.3396340000  9.0298380000 50.0017660000
49        4   3 -0.38531443111595786721 40.8968910000  6.6036320000 49.4645990000
50        4   4  0.25445292620865139765 39.7722010000  7.6431550000 51.6484830000
51        4   5 -0.11632133769538351153 39.9339280000  8.5206600000 52.6535490000
52        4   5 -0.11632133769538351153 39.5490280000  6.4279380000 52.1774660000
53        4   5 -0.11632133769538351153 38.6659510000  8.0025100000 50.9613480000
54        4   2  0.74154852780806990165 43.8099960000  6.6821550000 51.2223190000
55        4   3 -0.38531443111595786721 44.7033480000  6.9701820000 52.3515010000
56        4   3 -0.38531443111595786721 44.2713410000  6.9280240000 49.8484330000
57        4   4  0.25445292620865139765 43.6343690000  4.8008730000 51.3133510000
58        4   5 -0.11632133769538351153 43.1822490000  4.4090520000 52.5208800000
59        4   5 -0.11632133769538351153 42.7949540000  4.3287150000 50.3795250000
60        4   5 -0.11632133769538351153 44.8405280000  4.2220460000 51.1193780000
61        5   1 -0.47982551799345701804 47.9925430000 52.4404050000 37.1354880000
62        5   2  0.74154852780806990165 48.3006870000 52.6294090000 35.5529220000
63        5   3 -0.38531443111595786721 49.5364670000 51.9743760000 35.1001940000
64        5   3 -0.38531443111595786721 47.1335600000 52.6070590000 34.6565730000
65        5   4  0.25445292620865139765 48.7617060000 54.4551770000 35.6805290000
66        5   5 -0.11632133769538351153 49.8056770000 54.6637800000 36.5008560000
67        5   5 -0.11632133769538351153 47.7307040000 55.2050350000 36.1061210000
68        5   5 -0.11632133769538351153 49.1095150000 54.8934310000 34.4508790000
69        5   2  0.74154852780806990165 47.1976040000 51.1860950000 37.7482850000
70        5   3 -0.38531443111595786721 47.5999650000 51.0081330000 39.1491870000
71        5   3 -0.38531443111595786721 47.0766570000 50.0125920000 36.8712910000
72        5   4  0.25445292620865139765 45.4214710000 51.8158360000 37.9130010000
73        5   5 -0.11632133769538351153 45.3640970000 52.9258920000 38.6749360000
74        5   5 -0.11632133769538351153 44.8759780000 52.0988510000 36.7205570000
75        5   5 -0.11632133769538351153 44.6576850000 50.8712460000 38.5061850000
76        6   1 -0.47982551799345701804  6.0451090000 53.6619560000 45.4722610000
77        6   2  0.74154852780806990165  5.3927850000 54.2617880000 46.8323580000
78        6   3 -0.38531443111595786721  4.4795860000 55.3924740000 46.6114500000
79        6   3 -0.38531443111595786721  5.0459560000 53.2813880000 47.8738240000
80        6   4  0.25445292620865139765  6.9849720000 55.0638380000 47.4519590000
81        6   5 -0.11632133769538351153  7.4671190000 55.9768380000 46.5915560000
82        6   5 -0.11632133769538351153  7.9460290000 54.1547460000 47.6892400000
83        6   5 -0.11632133769538351153  6.7186570000 55.6948550000 48.6164210000
84        6   2  0.74154852780806990165  5.3463750000 52.5333080000 44.5674590000
85        6   3 -0.38531443111595786721  5.8470610000 52.6509110000 43.1921140000
86        6   3 -0.38531443111595786721  3.9113560000 52.3192440000 44.8035740000
87        6   4  0.25445292620865139765  6.1490550000 50.9244690000 45.1554210000
88        6   5 -0.11632133769538351153  7.4901480000 50.9726380000 45.0320820000
89        6   5 -0.11632133769538351153  5.8566630000 50.6559780000 46.4368260000
90        6   5 -0.11632133769538351153  5.7046720000 49.8933940000 44.4024970000
91        7   1 -0.47982551799345701804 44.9279330000 43.3406270000 45.1305160000
92        7   2  0.74154852780806990165 44.7762700000 44.0172010000 43.6627160000
93        7   3 -0.38531443111595786721 45.9935340000 44.6872000000 43.1825570000
94        7   3 -0.38531443111595786721 43.9594460000 43.2770980000 42.6874360000
95        7   4  0.25445292620865139765 43.6625210000 45.4295890000 44.2345310000
96        7   5 -0.11632133769538351153 44.2492570000 46.1992400000 45.1671110000
97        7   5 -0.11632133769538351153 42.4952640000 44.9809670000 44.7271060000
98        7   5 -0.11632133769538351153 43.3859580000 46.2120380000 43.1685270000
99        7   2  0.74154852780806990165 45.4835890000 41.8535650000 45.3767600000
100       7   3 -0.38531443111595786721 46.0443800000 41.7751420000 46.7315500000
101       7   3 -0.38531443111595786721 46.2096030000 41.2455830000 44.2524310000
102       7   4  0.25445292620865139765 43.9154690000 40.8060520000 45.5253230000
103       7   5 -0.11632133769538351153 43.1139010000 41.2609980000 46.5084680000
104       7   5 -0.11632133769538351153 43.2104000000 40.7921330000 44.3841550000
105       7   5 -0.11632133769538351153 44.2479260000 39.5303310000 45.8244770000
106       8   1 -0.47982551799345701804 39.7873300000 27.3643470000 27.8759500000
107       8   2  0.74154852780806990165 39.5915440000 28.9655320000 27.6941160000
108       8   3 -0.38531443111595786721 38.4327030000 29.5135320000 28.4138150000
109       8   3 -0.38531443111595786721 40.8234750000 29.7693590000 27.6458270000
110       8   4  0.25445292620865139765 39.0208230000 28.8698460000 25.8976270000
111       8   5 -0.11632133769538351153 37.9069240000 28.1319210000 25.7526240000
112       8   5 -0.11632133769538351153 39.9725980000 28.3644700000 25.0944460000
113       8   5 -0.11632133769538351153 38.7445290000 30.1216780000 25.4714170000
114       8   2  0.74154852780806990165 40.6016850000 26.6948660000 29.0881230000
115       8   3 -0.38531443111595786721 40.1035090000 25.3295110000 29.2972090000
116       8   3 -0.38531443111595786721 40.8549800000 27.5624870000 30.2474020000
117       8   4  0.25445292620865139765 42.3219670000 26.3924530000 28.3618090000
118       8   5 -0.11632133769538351153 42.2585660000 25.6259500000 27.2552310000
119       8   5 -0.11632133769538351153 42.9407520000 27.5387150000 28.0412340000
120       8   5 -0.11632133769538351153 43.0895160000 25.7442530000 29.2663490000
121       9   1 -0.47982551799345701804 37.6494760000 40.2765640000 24.7897580000
122       9   2  0.74154852780806990165 39.1259940000 40.5760780000 25.3942200000
123       9   3 -0.38531443111595786721 39.2612980000 41.9003900000 26.0179770000
124       9   3 -0.38531443111595786721 39.8132630000 39.4373960000 26.0244510000
125       9   4  0.25445292620865139765 39.9681730000 40.7641620000 23.7156460000
126       9   5 -0.11632133769538351153 39.4328310000 41.7549320000 22.9820850000
127       9   5 -0.11632133769538351153 39.9169270000 39.6289770000 22.9979350000
128       9   5 -0.11632133769538351153 41.2695310000 41.0616150000 23.9231650000
129       9   2  0.74154852780806990165 36.4383780000 39.6644430000 25.6495800000
130       9   3 -0.38531443111595786721 35.1680220000 40.0687160000 25.0340730000
131       9   3 -0.38531443111595786721 36.5920480000 39.7282090000 27.1101180000
132       9   4  0.25445292620865139765 36.5044470000 37.8133410000 25.2656420000
133       9   5 -0.11632133769538351153 36.4065900000 37.5840450000 23.9412890000
134       9   5 -0.11632133769538351153 37.6396400000 37.2492340000 25.7046210000
135       9   5 -0.11632133769538351153 35.4687880000 37.1871600000 25.8679640000
136      10   1 -0.47982551799345701804 20.3309400000 11.1973290000  6.0174580000
137      10   2  0.74154852780806990165 21.1234950000 10.3072270000  7.1196220000
138      10   3 -0.38531443111595786721 22.5558710000 10.1373670000  6.8356700000
139      10   3 -0.38531443111595786721 20.7091630000 10.4877850000  8.5202830000
140      10   4  0.25445292620865139765 20.3495740000  8.6637150000  6.6076030000
141      10   5 -0.11632133769538351153 20.6046450000  8.3550220000  5.3246470000
142      10   5 -0.11632133769538351153 19.0179080000  8.6573360000  6.7892830000
143      10   5 -0.11632133769538351153 20.8749870000  7.6870260000  7.3790290000
144      10   2  0.74154852780806990165 20.2254270000 12.7994690000  6.0699690000
145      10   3 -0.38531443111595786721 20.0014200000 13.3048140000  4.7096250000
146      10   3 -0.38531443111595786721 21.1894740000 13.4774680000  6.9484810000
147      10   4  0.25445292620865139765 18.5547740000 13.1134930000  6.8998280000
148      10   5 -0.11632133769538351153 17.5521630000 12.5205110000  6.2221810000
149      10   5 -0.11632133769538351153 18.5287030000 12.6633570000  8.1632670000
150      10   5 -0.11632133769538351153 18.3029740000 14.4414210000  6.9260650000
151      11   1 -0.47982551799345701804  2.5560020000 54.3693350000 24.8880530000
152      11   2  0.74154852780806990165  3.6096920000 55.2427310000 25.7610420000
153      11   3 -0.38531443111595786721  3.1737980000 56.6222300000 26.0221170000
154      11   3 -0.38531443111595786721  4.3199320000 54.5238930000 26.8310680000
155      11   4  0.25445292620865139765  4.8849540000 55.4112490000 24.3798980000
156      11   5 -0.11632133769538351153  4.3857680000 56.0259700000 23.2939620000
157      11   5 -0.11632133769538351153  5.3785520000 54.2190810000 24.0037610000
158      11   5 -0.11632133769538351153  5.9139350000 56.1565060000 24.8391000000
159      11   2  0.74154852780806990165  1.3335070000 53.5447710000 25.5255010000
160      11   3 -0.38531443111595786721  0.2845070000 53.3907550000 24.5096420000
161      11   3 -0.38531443111595786721  0.9656970000 53.9046400000 26.9024780000
162      11   4  0.25445292620865139765  2.0099020000 51.7849930000 25.6805040000
163      11   5 -0.11632133769538351153  2.4261250000 51.3135340000 24.4886370000
164      11   5 -0.11632133769538351153  3.0379990000 51.7155870000 26.5394450000
165      11   5 -0.11632133769538351153  1.0361710000 50.9619180000 26.1298130000
166      12   1 -0.47982551799345701804 31.5798940000 19.8324140000 47.7738280000
167      12   2  0.74154852780806990165 32.1542840000 19.7584020000 46.2573230000
168      12   3 -0.38531443111595786721 31.6596160000 18.6101000000 45.4840910000
169      12   3 -0.38531443111595786721 32.3204750000 21.0448970000 45.5620270000
170      12   4  0.25445292620865139765 33.9057310000 19.2632270000 46.7568080000
171      12   5 -0.11632133769538351153 33.9355130000 18.1076420000 47.4424200000
172      12   5 -0.11632133769538351153 34.5040760000 20.2119260000 47.4973040000
173      12   5 -0.11632133769538351153 34.6373730000 19.0952650000 45.6336140000
174      12   2  0.74154852780806990165 30.1949780000 20.5425100000 48.1719680000
175      12   3 -0.38531443111595786721 29.6931140000 19.9404040000 49.4136170000
176      12   3 -0.38531443111595786721 29.2662110000 20.8043100000 47.0630460000
177      12   4  0.25445292620865139765 30.7213360000 22.2679130000 48.7414280000
178      12   5 -0.11632133769538351153 31.6119680000 22.2001210000 49.7505080000
179      12   5 -0.11632133769538351153 31.2710080000 22.9797330000 47.7460620000
180      12   5 -0.11632133769538351153 29.6423490000 22.9466180000 49.1915740000
181      13   1 -0.47982551799345701804 16.5820370000 50.8573430000 55.7239220000
182      13   2  0.74154852780806990165 15.7296670000 49.5567250000 55.2580390000
183      13   3 -0.38531443111595786721 16.4980160000 48.5907770000 54.4594360000
184      13   3 -0.38531443111595786721 14.7556850000 49.0357320000 56.2306910000
185      13   4  0.25445292620865139765 14.6806200000 50.4794930000 53.9890830000
186      13   5 -0.11632133769538351153 15.4255900000 51.0553100000 53.0300310000
187      13   5 -0.11632133769538351153 13.9184500000 51.4272010000 54.5612100000
188      13   5 -0.11632133769538351153 13.8551230000 49.5917990000 53.3927360000
189      13   2  0.74154852780806990165 17.4706360000 50.9122560000 57.0611280000
190      13   3 -0.38531443111595786721 18.5270590000 51.9172120000 56.8875680000
191      13   3 -0.38531443111595786721 17.7942630000 49.6140940000 57.6701380000
192      13   4  0.25445292620865139765 16.3303590000 51.7362960000 58.3256760000
193      13   5 -0.11632133769538351153 15.9130330000 52.9432850000 57.8954660000
194      13   5 -0.11632133769538351153 15.2476820000 50.9889790000 58.5881780000
195      13   5 -0.11632133769538351153 16.9983290000 51.9228850000 59.4860580000
196      14   1 -0.47982551799345701804 24.9915940000 53.7356760000 42.7846080000
197      14   2  0.74154852780806990165 25.9500560000 54.7951570000 42.0138700000
198      14   3 -0.38531443111595786721 27.3868640000 54.5712630000 42.2298280000
199      14   3 -0.38531443111595786721 25.5059840000 55.2193270000 40.6763330000
200      14   4  0.25445292620865139765 25.5333230000 56.2560720000 43.1338310000
201      14   5 -0.11632133769538351153 25.8479700000 56.0221160000 44.4193620000
202      14   5 -0.11632133769538351153 24.2316010000 56.5840720000 43.0681250000
203      14   5 -0.11632133769538351153 26.2486510000 57.3256640000 42.7223040000
204      14   2  0.74154852780806990165 24.5569140000 52.3146380000 42.1743230000
205      14   3 -0.38531443111595786721 24.2345380000 51.4026810000 43.2790840000
206      14   3 -0.38531443111595786721 25.3590210000 51.8304560000 41.0416070000
207      14   4  0.25445292620865139765 22.8566360000 52.6513590000 41.4166750000
208      14   5 -0.11632133769538351153 21.9990200000 53.1384650000 42.3349800000
209      14   5 -0.11632133769538351153 22.9230160000 53.5258750000 40.4015910000
210      14   5 -0.11632133769538351153 22.3355780000 51.4988670000 40.9394470000
211      15   1 -0.47982551799345701804 31.1740640000 31.3616330000 46.0693070000
212      15   2  0.74154852780806990165 30.1365040000 31.1457380000 44.8396530000
213      15   3 -0.38531443111595786721 29.0201660000 30.2405540000 45.1488650000
214      15   3 -0.38531443111595786721 29.8630020000 32.3269490000 44.0053490000
215      15   4  0.25445292620865139765 31.3118380000 30.0967790000 43.8001690000
216      15   5 -0.11632133769538351153 31.6957830000 28.9761330000 44.4350450000
217      15   5 -0.11632133769538351153 32.4122790000 30.7804780000 43.4424420000
218      15   5 -0.11632133769538351153 30.6690390000 29.7306660000 42.6697500000
219      15   2  0.74154852780806990165 30.9842400000 32.4713010000 47.2153190000
220      15   3 -0.38531443111595786721 31.6937020000 32.0315840000 48.4233770000
221      15   3 -0.38531443111595786721 29.6376580000 33.0491770000 47.3320710000
222      15   4  0.25445292620865139765 32.0499580000 33.9173780000 46.6224780000
223      15   5 -0.11632133769538351153 33.3292540000 33.5379760000 46.4340130000
224      15   5 -0.11632133769538351153 31.5951320000 34.4388360000 45.4732190000
225      15   5 -0.11632133769538351153 32.0456240000 34.8968670000 47.5541800000
226      16   1 -0.47982551799345701804 26.2955220000 17.4973070000 25.4279150000
227      16   2  0.74154852780806990165 27.5062400000 18.2754960000 26.1787640000
228      16   3 -0.38531443111595786721 27.5516960000 19.7192760000 25.9056040000
229      16   3 -0.38531443111595786721 27.8301920000 17.8147850000 27.5385160000
230      16   4  0.25445292620865139765 28.8754370000 17.5542240000 25.0983410000
231      16   5 -0.11632133769538351153 28.7142610000 17.8550480000 23.7983970000
232      16   5 -0.11632133769538351153 28.9583980000 16.2181120000 25.2179480000
233      16   5 -0.11632133769538351153 30.0545620000 18.0774580000 25.4995490000
234      16   2  0.74154852780806990165 24.8136530000 17.3546850000 26.0316250000
235      16   3 -0.38531443111595786721 23.8675550000 17.1610480000 24.9255080000
236      16   3 -0.38531443111595786721 24.4751760000 18.2762300000 27.1257190000
237      16   4  0.25445292620865139765 24.8260930000 15.6529690000 26.8576770000
238      16   5 -0.11632133769538351153 25.1554130000 14.6848810000 25.9799440000
239      16   5 -0.11632133769538351153 25.6891770000 15.5984300000 27.8831980000
240      16   5 -0.11632133769538351153 23.5934900000 15.3710540000 27.3359050000
241      17   1 -0.47982551799345701804 52.7906840000  6.0417970000 38.3172290000
242      17   2  0.74154852780806990165 51.9637440000  7.2184120000 39.0701820000
243      17   3 -0.38531443111595786721 50.5100980000  7.0018760000 39.1049370000
244      17   3 -0.38531443111595786721 52.6071050000  7.8087450000 40.2549690000
245      17   4  0.25445292620865139765 52.2102560000  8.5040950000 37.7105860000
246      17   5 -0.11632133769538351153 51.7033240000  8.1061030000 36.5312000000
247      17   5 -0.11632133769538351153 53.5079020000  8.8066760000 37.5346850000
248      17   5 -0.11632133769538351153 51.5691220000  9.6363350000 38.0739800000
249      17   2  0.74154852780806990165 53.3084500000  4.7063050000 39.0446370000
250      17   3 -0.38531443111595786721 53.4564360000  3.6459050000 38.0397770000
251      17   3 -0.38531443111595786721 52.6860880000  4.3990640000 40.3404460000
252      17   4  0.25445292620865139765 55.1051180000  5.1015170000 39.4852590000
253      17   5 -0.11632133769538351153 55.8149100000  5.4393100000 38.3906580000
254      17   5 -0.11632133769538351153 55.1964230000  6.1065720000 40.3690630000
255      17   5 -0.11632133769538351153 55.6889140000  4.0119690000 40.0325740000
256      18   1 -0.47982551799345701804 43.2327750000 54.8125820000 32.9476710000
257      18   2  0.74154852780806990165 42.0898160000 54.9491510000 31.8030390000
258      18   3 -0.38531443111595786721 41.2854770000 56.1756950000 31.9020820000
259      18   3 -0.38531443111595786721 42.4514560000 54.4614390000 30.4623380000
260      18   4  0.25445292620865139765 40.9724320000 53.6017440000 32.5088710000
261      18   5 -0.11632133769538351153 40.5700200000 53.8743060000 33.7619090000
262      18   5 -0.11632133769538351153 41.5731050000 52.3994250000 32.5077830000
263      18   5 -0.11632133769538351153 39.8706620000 53.5121960000 31.7322380000
264      18   2  0.74154852780806990165 44.7085130000 55.4336710000 32.8165640000
265      18   3 -0.38531443111595786721 45.2481830000 55.6622030000 34.1629000000
266      18   3 -0.38531443111595786721 44.8826860000 56.4602330000 31.7789290000
267      18   4  0.25445292620865139765 45.7544130000 53.9826410000 32.2009680000
268      18   5 -0.11632133769538351153 45.6753050000 52.9311390000 33.0401030000
269      18   5 -0.11632133769538351153 45.3766180000 53.5728210000 30.9807630000
270      18   5 -0.11632133769538351153 47.0520480000 54.3551860000 32.1314030000
271      19   1 -0.47982551799345701804 21.2185860000 32.1584530000 32.6538070000
272      19   2  0.74154852780806990165 20.6110920000 31.6414030000 31.2400180000
273      19   3 -0.38531443111595786721 19.3842200000 32.3365580000 30.8244130000
274      19   3 -0.38531443111595786721 21.5924720000 31.2835760000 30.2032070000
275      19   4  0.25445292620865139765 20.0034840000 29.9831650000 31.9058310000
276      19   5 -0.11632133769538351153 19.1104660000 30.1264970000 32.8999650000
277      19   5 -0.11632133769538351153 21.0157340000 29.2193120000 32.3510970000
278      19   5 -0.11632133769538351153 19.3967370000 29.3167900000 30.8994120000
279      19   2  0.74154852780806990165 22.2311220000 33.3979400000 32.7923220000
280      19   3 -0.38531443111595786721 22.1093580000 33.9611170000 34.1429130000
281      19   3 -0.38531443111595786721 22.3057030000 34.2981380000 31.6326090000
282      19   4  0.25445292620865139765 23.9368820000 32.5818810000 32.8451300000
283      19   5 -0.11632133769538351153 24.0221260000 31.6899200000 33.8517080000
284      19   5 -0.11632133769538351153 24.2262070000 31.9475140000 31.6990710000
285      19   5 -0.11632133769538351153 24.8848910000 33.5235480000 33.0501400000
286      20   1 -0.47982551799345701804 26.8001460000  8.7251500000 15.1455210000
287      20   2  0.74154852780806990165 26.0533510000  7.7738350000 16.2283350000
288      20   3 -0.38531443111595786721 26.6334720000  6.4281020000 16.3451450000
289      20   3 -0.38531443111595786721 25.5773410000  8.4343980000 17.4543850000
290      20   4  0.25445292620865139765 24.4948700000  7.5205150000 15.1943050000
291      20   5 -0.11632133769538351153 24.7556610000  6.9486570000 14.0063260000
292      20   5 -0.11632133769538351153 23.8437860000  8.6758040000 14.9757240000
293      20   5 -0.11632133769538351153 23.6624160000  6.7007930000 15.8726510000
294      20   2  0.74154852780806990165 28.0813910000  9.6326040000 15.4856400000
295      20   3 -0.38531443111595786721 28.8383180000  9.8667750000 14.2493890000
296      20   3 -0.38531443111595786721 28.7972560000  9.2935150000 16.7239490000
297      20   4  0.25445292620865139765 27.3437600000 11.3382640000 15.8391660000
298      20   5 -0.11632133769538351153 26.6184580000 11.7842640000 14.7946170000
299      20   5 -0.11632133769538351153 26.5534870000 11.3292010000 16.9231250000
300      20   5 -0.11632133769538351153 28.3386270000 12.2272120000 16.0571080000
301      21   1 -0.47982551799345701804 34.7010350000 20.3123570000 23.1562260000
302      21   2  0.74154852780806990165 35.5363370000 21.0142300000 24.3582390000
303      21   3 -0.38531443111595786721 35.8139560000 22.4415500000 24.1417480000
304      21   3 -0.38531443111595786721 35.2101520000 20.5686650000 25.7224970000
305      21   4  0.25445292620865139765 37.1701340000 20.1569440000 23.9607250000
306      21   5 -0.11632133769538351153 37.6041320000 20.4321090000 22.7188480000
307      21   5 -0.11632133769538351153 37.0826090000 18.8224240000 24.0940630000
308      21   5 -0.11632133769538351153 38.1047880000 20.5972140000 24.8311630000
309      21   2  0.74154852780806990165 33.0970140000 20.3039610000 23.0679730000
310      21   3 -0.38531443111595786721 32.7001900000 20.1536190000 21.6622630000
311      21   3 -0.38531443111595786721 32.4024940000 21.2802350000 23.9196680000
312      21   4  0.25445292620865139765 32.6143850000 18.6309100000 23.8071110000
313      21   5 -0.11632133769538351153 33.2045530000 17.6151780000 23.1467680000
314      21   5 -0.11632133769538351153 32.9501230000 18.5381570000 25.1025870000
315      21   5 -0.11632133769538351153 31.2767810000 18.4605290000 23.7108130000
316      22   1 -0.47982551799345701804 48.4478360000 42.8496400000 19.3322490000
317      22   2  0.74154852780806990165 47.7507940000 43.5276800000 18.0324100000
318      22   3 -0.38531443111595786721 46.2964260000 43.7035590000 18.1551490000
319      22   3 -0.38531443111595786721 48.5238630000 44.5819720000 17.3564240000
320      22   4  0.25445292620865139765 47.9443170000 42.0151180000 16.9202240000
321      22   5 -0.11632133769538351153 47.3173320000 40.9333060000 17.4130730000
322      22   5 -0.11632133769538351153 49.2356700000 41.7022050000 16.7180490000
323      22   5 -0.11632133769538351153 47.3961040000 42.2975270000 15.7182320000
324      22   2  0.74154852780806990165 48.9573710000 43.6804460000 20.6093070000
325      22   3 -0.38531443111595786721 48.9630590000 42.7942770000 21.7801030000
326      22   3 -0.38531443111595786721 48.4346570000 45.0486070000 20.7348510000
327      22   4  0.25445292620865139765 50.8033820000 43.9273930000 20.2782260000
328      22   5 -0.11632133769538351153 51.4320850000 42.7479720000 20.1057120000
329      22   5 -0.11632133769538351153 51.0224370000 44.6807640000 19.1900960000
330      22   5 -0.11632133769538351153 51.3756460000 44.5465480000 21.3349410000