Generated by pymatgen.io.lammps.data.LammpsData

16406  atoms
15711  bonds
28040  angles
27897  dihedrals

   17  atom types
   18  bond types
   29  angle types
   27  dihedral types

-0.2500000000 60.2500000000  xlo xhi
-0.2500000000 60.2500000000  ylo yhi
-0.2500000000 60.2500000000  zlo zhi

Masses

1   18.998403
2   15.999400
3   12.010700
4   12.010700
5    1.007940
6   14.010000
7   32.060000
8   16.000000
9   12.010000
10  19.000000
11  16.000000
12  12.010000
13  12.010000
14   1.008000
15  32.060000
16  32.060000
17   6.941000

Pair Coeffs

1     0.0610  2.940000
2     0.1400  2.900000
3     0.0660  3.500000
4     0.0660  3.500000
5     0.0300  2.500000
6       0.17  3.249999
7       0.25  3.549340
8       0.21  2.959566
9      0.066  3.499450
10     0.053  2.948875
11      0.14  2.900000
12     0.066  3.500000
13     0.066  3.500000
14      0.03  2.500000
15  0.344001  3.590322
16  0.344001  3.590322
17  0.165057  1.506000

Bond Coeffs

1   367.00  1.332
2   320.00  1.410
3   320.00  1.410
4   268.00  1.529
5   340.00  1.090
6   268.00  1.529
7   340.00  1.090
8   441.80  1.323
9   235.40  1.818
10  637.10  1.442
11  372.00  1.570
12  320.00  1.410
13  320.00  1.380
14  268.00  1.529
15  340.00  1.090
16  340.00  1.090
17  157.87  2.133
18  154.36  2.117


Angle Coeffs

1    60.00  109.50
2    60.00  109.50
3    50.00  109.50
4    35.00  109.50
5    37.50  110.70
6    33.00  107.80
7    50.00  109.50
8    35.00  109.50
9    37.50  110.70
10   33.00  107.80
11   77.00  109.10
12   50.00  109.50
13   93.30  107.10
14   82.90  111.80
15  104.00  102.60
16  115.80  118.50
17   94.30  113.60
18   97.50  100.20
19   80.20  125.60
20   60.00  109.50
21   50.00  109.50
22   35.00  109.50
23   37.50  110.70
24   33.00  107.80
25   92.60  111.55
26   35.00  109.50
27   33.00  109.50
28   73.56  112.74
29   73.56  112.74


Dihedral Coeffs

1 3 0.062500000 1 0.000000000 -0.011000000 2 180.000000000 0.280500000 3 0.000000000
2 3 0.062500000 1 0.000000000 -0.011000000 2 180.000000000 0.280500000 3 0.000000000
3 1 0.370500000 3 0.000000000
4 1 0.370500000 3 0.000000000
5 3 0.062500000 1 0.000000000 -0.011000000 2 180.000000000 0.280500000 3 0.000000000
6 1 0.370500000 3 0.000000000
7 3 1.119000000 1 0.000000000 -1.163500000 2 180.000000000 -0.341500000 3 0.000000000
8 1 0.234000000 3 0.000000000
9 1 0.150000000 3 0.000000000
10 2 0.518500000 1 0.000000000 -0.728500000 2 180.000000000
11 2 0.518500000 1 0.000000000 -0.728500000 2 180.000000000
12 1 0.032000000 3 0.000000000
13 1 0.173400000 3 0.000000000
14 1 0.158000000 3 0.000000000
15 1 -0.001800000 3 0.000000000
16 3 3.916460000 1 0.000000000 -1.245000000 2 180.000000000 -0.381800000 3 0.000000000
17 3 0.062500000 1 0.000000000 -0.011000000 2 180.000000000 0.280500000 3 0.000000000
18 3 0.062500000 1 0.000000000 -0.011000000 2 180.000000000 0.280500000 3 0.000000000
19 1 0.370500000 3 0.000000000
20 1 0.370500000 3 0.000000000
21 3 -0.533500000 1 0.000000000 -0.783500000 2 180.000000000 0.337500000 3 0.000000000
22 1 0.370500000 3 0.000000000
23 3 1.119000000 1 0.000000000 -1.163500000 2 180.000000000 -0.341500000 3 0.000000000
24 1 0.234000000 3 0.000000000
25 1 0.150000000 3 0.000000000
26 4 5.431700000 1 0.000000000 -3.590000000 2 180.000000000 1.055600000 3 0.000000000 0.058320000 4 180.000000000
27 4 5.431700000 1 0.000000000 -3.590000000 2 180.000000000 1.055600000 3 0.000000000 0.058320000 4 180.000000000


Atoms

1         1   1 -0.20569999999999999396 33.9400600000  6.3174290000 32.2400120000
2         1   1 -0.20569999999999999396 34.4556950000  4.2261040000 31.9031810000
3         1   1 -0.20569999999999999396 32.3919940000  4.8968010000 31.6352060000
4         1   2 -0.42249999999999998668 35.2114520000  6.0626240000 29.6960890000
5         1   2 -0.40000000000000002220 35.7377860000  3.9747470000 27.7803920000
6         1   3  0.14000000000000001332 36.3364870000  5.1773610000 29.7685490000
7         1   3  0.14000000000000001332 36.1496140000  3.8109690000 29.1242560000
8         1   4  0.14230000000000000981 33.9343740000  5.5544710000 29.9696850000
9         1   3  0.53229999999999999538 33.6883380000  5.2555050000 31.4477180000
10        1   3  0.11000000000000000056 35.5791760000  2.7428350000 27.0957470000
11        1   5  0.02999999999999999889 37.1294070000  5.7210040000 29.2499150000
12        1   5  0.02999999999999999889 36.6363740000  5.0277140000 30.8151340000
13        1   5  0.02999999999999999889 37.1177100000  3.2842240000 29.1805030000
14        1   5  0.02999999999999999889 35.4190020000  3.2004560000 29.6804690000
15        1   5  0.08250000000000000389 33.6998610000  4.6471830000 29.3989900000
16        1   5  0.08250000000000000389 33.2245700000  6.3357030000 29.6847450000
17        1   5  0.02999999999999999889 36.5280270000  2.1853750000 27.0475520000
18        1   5  0.02999999999999999889 34.8208230000  2.1076440000 27.5809150000
19        1   5  0.02999999999999999889 35.2511170000  2.9824960000 26.0812990000
20        2   1 -0.20569999999999999396 56.4473410000 47.3455930000 38.4305910000
21        2   1 -0.20569999999999999396 56.0146870000 45.5898050000 37.2128070000
22        2   1 -0.20569999999999999396 55.3891790000 47.5706600000 36.5305580000
23        2   2 -0.42249999999999998668 58.8186090000 46.5527630000 37.0516730000
24        2   2 -0.40000000000000002220 59.5088020000 44.9779570000 34.7387150000
25        2   3  0.14000000000000001332 58.9754870000 45.1281350000 37.0733500000
26        2   3  0.14000000000000001332 58.7083600000 44.4099770000 35.7580730000
27        2   4  0.14230000000000000981 57.7015340000 47.0987470000 36.4051070000
28        2   3  0.53229999999999999538 56.3879550000 46.8989180000 37.1594770000
29        2   3  0.11000000000000000056 59.3466300000 44.3355860000 33.4846970000
30        2   5  0.02999999999999999889 60.0191390000 44.9854880000 37.3626480000
31        2   5  0.02999999999999999889 58.3307630000 44.6858450000 37.8456040000
32        2   5  0.02999999999999999889 58.9544710000 43.3446640000 35.9076460000
33        2   5  0.02999999999999999889 57.6415740000 44.4576260000 35.4831340000
34        2   5  0.08250000000000000389 57.5651980000 46.7186460000 35.3849120000
35        2   5  0.08250000000000000389 57.8727750000 48.1772910000 36.3525960000
36        2   5  0.02999999999999999889 59.6421320000 43.2756340000 33.5355090000
37        2   5  0.02999999999999999889 58.3037730000 44.3949060000 33.1341460000
38        2   5  0.02999999999999999889 59.9942700000 44.8556920000 32.7746140000
39        3   1 -0.20569999999999999396 50.6552020000 36.5483910000 58.3366760000
40        3   1 -0.20569999999999999396 51.8039110000 35.2826150000 56.9834360000
41        3   1 -0.20569999999999999396 52.5619330000 37.2577160000 57.5356030000
42        3   2 -0.42249999999999998668 52.0037280000 34.5378060000 59.8505890000
43        3   2 -0.40000000000000002220 54.2544130000 32.7700520000 59.5105680000
44        3   3  0.14000000000000001332 51.9270420000 33.2635490000 59.1986420000
45        3   3  0.14000000000000001332 53.2134040000 32.7692900000 58.5520810000
46        3   4  0.14230000000000000981 52.6703140000 35.5874110000 59.2040640000
47        3   3  0.53229999999999999538 51.9080510000 36.1677250000 58.0138170000
48        3   3  0.11000000000000000056 55.4825530000 32.2832250000 58.9946460000
49        3   5  0.02999999999999999889 51.6330190000 32.5794380000 59.9978870000
50        3   5  0.02999999999999999889 51.1378990000 33.2740520000 58.4339140000
51        3   5  0.02999999999999999889 53.0228660000 31.7498070000 58.1750090000
52        3   5  0.02999999999999999889 53.4893900000 33.3873320000 57.6815930000
53        3   5  0.08250000000000000389 53.6749650000 35.3126670000 58.8590210000
54        3   5  0.08250000000000000389 52.7646040000 36.3913580000 59.9389900000
55        3   5  0.02999999999999999889 55.3909380000 31.2378730000 58.6596120000
56        3   5  0.02999999999999999889 55.8345590000 32.8954160000 58.1489110000
57        3   5  0.02999999999999999889 56.2125830000 32.3380310000 59.8059520000
58        4   1 -0.20569999999999999396 11.8681970000 39.0037280000 56.7025640000
59        4   1 -0.20569999999999999396 11.2478060000 40.7875670000 55.6135230000
60        4   1 -0.20569999999999999396 12.9683650000 40.8756130000 56.9597890000
61        4   2 -0.42249999999999998668 12.7655940000 38.8117140000 53.9987300000
62        4   2 -0.40000000000000002220 13.2569230000 40.5948910000 51.7885190000
63        4   3  0.14000000000000001332 11.7510740000 39.2513560000 53.0865290000
64        4   3  0.14000000000000001332 11.9924780000 40.6002600000 52.4237740000
65        4   4  0.14230000000000000981 13.2905580000 39.7302950000 54.9177640000
66        4   3  0.53229999999999999538 12.3326790000 40.0901680000 56.0524250000
67        4   3  0.11000000000000000056 13.5415100000 41.8080240000 51.1111570000
68        4   5  0.02999999999999999889 11.7285740000 38.4684460000 52.3250850000
69        4   5  0.02999999999999999889 10.7746490000 39.2834940000 53.5897470000
70        4   5  0.02999999999999999889 11.1820060000 40.7581720000 51.6916310000
71        4   5  0.02999999999999999889 11.9306060000 41.4241190000 53.1540630000
72        4   5  0.08250000000000000389 13.6250470000 40.6648540000 54.4502400000
73        4   5  0.08250000000000000389 14.1551730000 39.2450010000 55.3784880000
74        4   5  0.02999999999999999889 12.8101120000 42.0018350000 50.3105970000
75        4   5  0.02999999999999999889 13.5421770000 42.6649350000 51.8037300000
76        4   5  0.02999999999999999889 14.5361020000 41.7011110000 50.6712450000
77        5   1 -0.20569999999999999396 25.5999960000 33.9763410000 55.2785380000
78        5   1 -0.20569999999999999396 25.1939090000 36.0833270000 54.8929470000
79        5   1 -0.20569999999999999396 26.8356890000 35.0815250000 53.8530150000
80        5   2 -0.42249999999999998668 23.3451310000 34.1944080000 53.5404530000
81        5   2 -0.40000000000000002220 22.2135290000 36.1578720000 51.7598810000
82        5   3  0.14000000000000001332 22.4672880000 35.2452400000 53.9644680000
83        5   3  0.14000000000000001332 22.4737440000 36.5031170000 53.1072830000
84        5   4  0.14230000000000000981 24.6501240000 34.5223370000 53.1487140000
85        5   3  0.53229999999999999538 25.5671990000 34.9113500000 54.3072210000
86        5   3  0.11000000000000000056 22.1635660000 37.2841510000 50.8993570000
87        5   5  0.02999999999999999889 21.4767460000 34.7858330000 53.9324790000
88        5   5  0.02999999999999999889 22.6905550000 35.5326490000 55.0013930000
89        5   5  0.02999999999999999889 21.6927240000 37.1755510000 53.5018390000
90        5   5  0.02999999999999999889 23.4326190000 37.0412930000 53.1898560000
91        5   5  0.08250000000000000389 24.6874840000 35.3277360000 52.4045380000
92        5   5  0.08250000000000000389 25.0738630000 33.6187290000 52.7023110000
93        5   5  0.02999999999999999889 21.3552430000 37.9744650000 51.1882870000
94        5   5  0.02999999999999999889 23.1172170000 37.8359580000 50.9031090000
95        5   5  0.02999999999999999889 21.9710710000 36.9067170000 49.8920560000
96        6   1 -0.20569999999999999396 22.5072930000 11.6920980000 23.3685060000
97        6   1 -0.20569999999999999396 23.0395710000  9.6351620000 22.8799680000
98        6   1 -0.20569999999999999396 24.5421950000 11.2159500000 22.7259010000
99        6   2 -0.42249999999999998668 22.8940020000 10.2235230000 25.7864910000
100       6   2 -0.40000000000000002220 24.2153300000  7.8001120000 26.6155430000
101       6   3  0.14000000000000001332 22.3021000000  8.9209930000 25.6986610000
102       6   3  0.14000000000000001332 23.2736720000  7.7574110000 25.5601490000
103       6   4  0.14230000000000000981 23.9391760000 10.5500140000 24.9118390000
104       6   3  0.53229999999999999538 23.4930590000 10.7771740000 23.4682760000
105       6   3  0.11000000000000000056 25.1360550000  6.7219130000 26.5801640000
106       6   5  0.02999999999999999889 21.7461630000  8.8240260000 26.6339590000
107       6   5  0.02999999999999999889 21.5931120000  8.8807770000 24.8599800000
108       6   5  0.02999999999999999889 22.6814840000  6.8268580000 25.5950440000
109       6   5  0.02999999999999999889 23.7863730000  7.7754190000 24.5840830000
110       6   5  0.08250000000000000389 24.7428550000  9.8031060000 24.9023880000
111       6   5  0.08250000000000000389 24.3521910000 11.4983440000 25.2659940000
112       6   5  0.02999999999999999889 24.6229670000  5.7524730000 26.6817900000
113       6   5  0.02999999999999999889 25.7153920000  6.7181590000 25.6429830000
114       6   5  0.02999999999999999889 25.8178820000  6.8578990000 27.4232450000
115       7   1 -0.20569999999999999396 26.2903570000  7.3582250000 13.7881200000
116       7   1 -0.20569999999999999396 24.2774040000  6.8397490000 14.4455260000
117       7   1 -0.20569999999999999396 24.8097660000  8.9340480000 14.1123430000
118       7   2 -0.42249999999999998668 24.8002870000  6.3736570000 11.5602900000
119       7   2 -0.40000000000000002220 22.0317780000  6.0208440000 10.8412390000
120       7   3  0.14000000000000001332 24.0192910000  5.2292830000 11.9278490000
121       7   3  0.14000000000000001332 22.5189720000  5.4582600000 12.0447920000
122       7   4  0.14230000000000000981 24.5316270000  7.6013020000 12.1805430000
123       7   3  0.53229999999999999538 24.9881120000  7.6745220000 13.6368250000
124       7   3  0.11000000000000000056 20.6289410000  6.2290580000 10.8553330000
125       7   5  0.02999999999999999889 24.2185630000  4.5107560000 11.1295620000
126       7   5  0.02999999999999999889 24.3800830000  4.8113930000 12.8780400000
127       7   5  0.02999999999999999889 22.0499760000  4.4791230000 12.2427000000
128       7   5  0.02999999999999999889 22.2769280000  6.1092880000 12.9012200000
129       7   5  0.08250000000000000389 23.4707140000  7.8790050000 12.1457950000
130       7   5  0.08250000000000000389 25.1046770000  8.3546690000 11.6333780000
131       7   5  0.02999999999999999889 20.0835530000  5.2800560000 10.9792260000
132       7   5  0.02999999999999999889 20.3321350000  6.9150610000 11.6648150000
133       7   5  0.02999999999999999889 20.3634730000  6.6732360000  9.8928370000
134       8   1 -0.20569999999999999396 46.9538360000 43.6713910000  3.9461100000
135       8   1 -0.20569999999999999396 48.1311140000 41.8663250000  4.2758550000
136       8   1 -0.20569999999999999396 49.1303420000 43.7383730000  3.7490850000
137       8   2 -0.42249999999999998668 47.1911950000 43.2058910000  6.7532220000
138       8   2 -0.40000000000000002220 48.9178990000 41.7291520000  8.5263230000
139       8   3  0.14000000000000001332 47.0193560000 41.8166430000  7.0616130000
140       8   3  0.14000000000000001332 48.2818260000 41.0615910000  7.4529310000
141       8   4  0.14230000000000000981 48.2702520000 43.5891980000  5.9453130000
142       8   3  0.53229999999999999538 48.1079440000 43.2141060000  4.4730840000
143       8   3  0.11000000000000000056 50.0863690000 41.0639590000  8.9776520000
144       8   5  0.02999999999999999889 46.3205310000 41.8208070000  7.9011830000
145       8   5  0.02999999999999999889 46.5523950000 41.2937420000  6.2153340000
146       8   5  0.02999999999999999889 47.9792440000 40.0412000000  7.7446140000
147       8   5  0.02999999999999999889 48.9711650000 40.9602230000  6.5982790000
148       8   5  0.08250000000000000389 49.2314490000 43.1885580000  6.2909300000
149       8   5  0.08250000000000000389 48.3146760000 44.6807590000  5.9883970000
150       8   5  0.02999999999999999889 49.8538590000 40.0551670000  9.3540560000
151       8   5  0.02999999999999999889 50.8354970000 40.9770510000  8.1744030000
152       8   5  0.02999999999999999889 50.5003340000 41.6646600000  9.7912600000
153       9   1 -0.20569999999999999396 19.5224180000 48.1424370000 36.8001440000
154       9   1 -0.20569999999999999396 21.4735470000 49.0600370000 36.4775250000
155       9   1 -0.20569999999999999396 19.6694670000 50.0433850000 35.7299770000
156       9   2 -0.42249999999999998668 20.3784040000 49.4007420000 39.2161040000
157       9   2 -0.40000000000000002220 22.2573910000 51.4395080000 40.0028680000
158       9   3  0.14000000000000001332 21.7688790000 49.1535580000 39.4613080000
159       9   3  0.14000000000000001332 22.7031370000 50.3346400000 39.2393390000
160       9   4  0.14230000000000000981 20.0124690000 50.1149780000 38.0672090000
161       9   3  0.53229999999999999538 20.1693870000 49.3253210000 36.7686270000
162       9   3  0.11000000000000000056 23.1007420000 52.5732600000 39.8809380000
163       9   5  0.02999999999999999889 21.7990730000 48.8556280000 40.5118210000
164       9   5  0.02999999999999999889 22.1207420000 48.3142250000 38.8453700000
165       9   5  0.02999999999999999889 23.7136770000 50.0194360000 39.5512540000
166       9   5  0.02999999999999999889 22.7656630000 50.6030040000 38.1716480000
167       9   5  0.08250000000000000389 20.5584520000 51.0600270000 37.9547540000
168       9   5  0.08250000000000000389 18.9477460000 50.3406420000 38.1710180000
169       9   5  0.02999999999999999889 24.1187590000 52.3568960000 40.2418100000
170       9   5  0.02999999999999999889 23.1623900000 52.9183650000 38.8364010000
171       9   5  0.02999999999999999889 22.6620930000 53.3636690000 40.4949470000
172      10   1 -0.20569999999999999396 46.0522790000 21.2628660000 49.3279740000
173      10   1 -0.20569999999999999396 46.1194410000 22.6207320000 51.0322820000
174      10   1 -0.20569999999999999396 44.2033060000 22.1436330000 50.0935010000
175      10   2 -0.42249999999999998668 46.3582190000 19.7438240000 51.7262690000
176      10   2 -0.40000000000000002220 45.9128230000 20.1128260000 54.5496740000
177      10   3  0.14000000000000001332 47.3033690000 20.3606070000 52.6099620000
178      10   3  0.14000000000000001332 46.7183480000 21.0363430000 53.8421120000
179      10   4  0.14230000000000000981 45.1846940000 20.4380860000 51.4024750000
180      10   3  0.53229999999999999538 45.4017370000 21.6169380000 50.4550070000
181      10   3  0.11000000000000000056 45.3602100000 20.6563120000 55.7374210000
182      10   5  0.02999999999999999889 47.9494090000 19.5351760000 52.9174480000
183      10   5  0.02999999999999999889 47.9080780000 21.0990730000 52.0652960000
184      10   5  0.02999999999999999889 47.5635740000 21.3811700000 54.4622090000
185      10   5  0.02999999999999999889 46.1331950000 21.9307000000 53.5707910000
186      10   5  0.08250000000000000389 44.6459390000 20.8088520000 52.2834610000
187      10   5  0.08250000000000000389 44.5412980000 19.7271270000 50.8771970000
188      10   5  0.02999999999999999889 46.1484570000 20.9617290000 56.4436710000
189      10   5  0.02999999999999999889 44.7220920000 21.5282830000 55.5219530000
190      10   5  0.02999999999999999889 44.7528790000 19.8710150000 56.1941740000
191      11   1 -0.20569999999999999396  8.5289290000 47.3419290000 53.9006270000
192      11   1 -0.20569999999999999396  8.8588970000 46.7723290000 55.9790050000
193      11   1 -0.20569999999999999396 10.0744320000 45.8772660000 54.3972830000
194      11   2 -0.42249999999999998668 10.0125680000 49.3985900000 55.2128270000
195      11   2 -0.40000000000000002220 11.6517300000 49.6670200000 57.5680860000
196      11   3  0.14000000000000001332  9.4915520000 49.6536640000 56.5236000000
197      11   3  0.14000000000000001332 10.3387190000 49.1524300000 57.6846920000
198      11   4  0.14230000000000000981 10.5413340000 48.1315400000 54.9317730000
199      11   3  0.53229999999999999538  9.4867880000 47.0339490000 54.7986420000
200      11   3  0.11000000000000000056 12.4967240000 49.2762340000 58.6380270000
201      11   5  0.02999999999999999889  9.4185610000 50.7427030000 56.5673920000
202      11   5  0.02999999999999999889  8.4834780000 49.2273600000 56.6221770000
203      11   5  0.02999999999999999889  9.8591520000 49.4979410000 58.6166110000
204      11   5  0.02999999999999999889 10.3576470000 48.0505700000 57.7226240000
205      11   5  0.08250000000000000389 11.2815380000 47.7995670000 55.6705250000
206      11   5  0.08250000000000000389 11.0349430000 48.2125980000 53.9596020000
207      11   5  0.02999999999999999889 12.1191380000 49.6476090000 59.6039000000
208      11   5  0.02999999999999999889 12.5933880000 48.1801480000 58.6946630000
209      11   5  0.02999999999999999889 13.4790750000 49.7137750000 58.4438410000
210      12   1 -0.20569999999999999396 50.2384630000 32.5997640000 27.5604940000
211      12   1 -0.20569999999999999396 52.1224910000 31.6564220000 28.1204240000
212      12   1 -0.20569999999999999396 50.2568690000 31.0051430000 29.0562650000
213      12   2 -0.42249999999999998668 50.9991440000 30.7443250000 25.5278560000
214      12   2 -0.40000000000000002220 52.7308910000 28.4541850000 25.2779140000
215      12   3  0.14000000000000001332 52.4027000000 30.8309500000 25.2500570000
216      12   3  0.14000000000000001332 53.2538380000 29.6770670000 25.7611160000
217      12   4  0.14230000000000000981 50.5878740000 30.3526020000 26.8090330000
218      12   3  0.53229999999999999538 50.8023640000 31.4179290000 27.8830760000
219      12   3  0.11000000000000000056 53.4943360000 27.3283190000 25.6792590000
220      12   5  0.02999999999999999889 52.4505720000 30.8657510000 24.1593010000
221      12   5  0.02999999999999999889 52.8132740000 31.7676430000 25.6521790000
222      12   5  0.02999999999999999889 54.2828790000 29.8392780000 25.3969800000
223      12   5  0.02999999999999999889 53.3005500000 29.6687480000 26.8627700000
224      12   5  0.08250000000000000389 51.0676550000 29.4273340000 27.1518920000
225      12   5  0.08250000000000000389 49.5098460000 30.1811660000 26.7473820000
226      12   5  0.02999999999999999889 54.5238880000 27.3825660000 25.2913390000
227      12   5  0.02999999999999999889 53.5348160000 27.2401870000 26.7767790000
228      12   5  0.02999999999999999889 53.0005640000 26.4453400000 25.2660970000
229      13   1 -0.20569999999999999396 53.0832820000  7.2832380000 17.4513320000
230      13   1 -0.20569999999999999396 53.9165210000  6.7281080000 15.5147060000
231      13   1 -0.20569999999999999396 53.7967230000  5.2439090000 17.1157400000
232      13   2 -0.42249999999999998668 50.9522650000  6.8763730000 15.5949550000
233      13   2 -0.40000000000000002220 50.5496640000  5.5262170000 13.0807660000
234      13   3  0.14000000000000001332 51.2621980000  7.4534350000 14.3199700000
235      13   3  0.14000000000000001332 51.5973400000  6.4687880000 13.2085680000
236      13   4  0.14230000000000000981 51.7574680000  5.8362230000 16.0784210000
237      13   3  0.53229999999999999538 53.1410740000  6.2869170000 16.5442600000
238      13   3  0.11000000000000000056 50.7686060000  4.5932490000 12.0352340000
239      13   5  0.02999999999999999889 50.3576500000  8.0069250000 14.0578750000
240      13   5  0.02999999999999999889 52.0957980000  8.1630790000 14.4157920000
241      13   5  0.02999999999999999889 51.7226620000  7.0502270000 12.2790210000
242      13   5  0.02999999999999999889 52.5556000000  5.9576830000 13.3993570000
243      13   5  0.08250000000000000389 51.8942030000  5.0240530000 15.3534760000
244      13   5  0.08250000000000000389 51.2459050000  5.4336090000 16.9567960000
245      13   5  0.02999999999999999889 50.8347940000  5.0950560000 11.0568620000
246      13   5  0.02999999999999999889 51.6922430000  4.0152090000 12.1986930000
247      13   5  0.02999999999999999889 49.9142860000  3.9118560000 12.0326940000
248      14   1 -0.20569999999999999396 44.5739890000 40.4420400000 24.2353670000
249      14   1 -0.20569999999999999396 43.8904100000 39.0899910000 25.8030600000
250      14   1 -0.20569999999999999396 44.5385100000 41.1142920000 26.3155850000
251      14   2 -0.42249999999999998668 41.7214890000 40.3222470000 24.1929160000
252      14   2 -0.40000000000000002220 39.5966600000 39.5727890000 25.9900170000
253      14   3  0.14000000000000001332 41.2595320000 38.9764360000 24.3662190000
254      14   3  0.14000000000000001332 40.6395180000 38.6555500000 25.7188750000
255      14   4  0.14230000000000000981 42.4485960000 40.9246090000 25.2285210000
256      14   3  0.53229999999999999538 43.8699870000 40.3862050000 25.3842970000
257      14   3  0.11000000000000000056 38.9392070000 39.3159870000 27.2201830000
258      14   5  0.02999999999999999889 40.5088900000 38.8557760000 23.5818530000
259      14   5  0.02999999999999999889 42.0783920000 38.2664620000 24.1843640000
260      14   5  0.02999999999999999889 40.2552710000 37.6222450000 25.6691790000
261      14   5  0.02999999999999999889 41.3936990000 38.6794360000 26.5229490000
262      14   5  0.08250000000000000389 41.9517020000 40.8507440000 26.2039710000
263      14   5  0.08250000000000000389 42.5401360000 41.9819650000 24.9659310000
264      14   5  0.02999999999999999889 38.4652470000 38.3216220000 27.2220360000
265      14   5  0.02999999999999999889 39.6380100000 39.3755460000 28.0699370000
266      14   5  0.02999999999999999889 38.1682550000 40.0819050000 27.3349260000
267      15   1 -0.20569999999999999396 13.0552250000  4.7349080000 16.7628240000
268      15   1 -0.20569999999999999396 15.1898740000  4.3254610000 16.9319530000
269      15   1 -0.20569999999999999396 13.8234080000  2.7421940000 16.2943450000
270      15   2 -0.42249999999999998668 14.4018180000  5.8218910000 14.4916870000
271      15   2 -0.40000000000000002220 16.9133920000  5.4496740000 13.1280130000
272      15   3  0.14000000000000001332 15.6226950000  6.4669780000 14.8763530000
273      15   3  0.14000000000000001332 16.9055010000  5.7316850000 14.5146660000
274      15   4  0.14230000000000000981 14.2661310000  4.4453250000 14.7167620000
275      15   3  0.53229999999999999538 14.0782840000  4.0717440000 16.1863360000
276      15   3  0.11000000000000000056 18.0986410000  4.7974110000 12.7022900000
277      15   5  0.02999999999999999889 15.5886470000  7.4236900000 14.3502390000
278      15   5  0.02999999999999999889 15.6275780000  6.6583890000 15.9584820000
279      15   5  0.02999999999999999889 17.7501770000  6.3860530000 14.7906350000
280      15   5  0.02999999999999999889 17.0149200000  4.8026180000 15.0984080000
281      15   5  0.08250000000000000389 15.1070420000  3.8593480000 14.3251460000
282      15   5  0.08250000000000000389 13.3562970000  4.1362480000 14.1952160000
283      15   5  0.02999999999999999889 18.9874420000  5.4230980000 12.8810350000
284      15   5  0.02999999999999999889 18.2354610000  3.8339580000 13.2190040000
285      15   5  0.02999999999999999889 17.9952530000  4.6179120000 11.6293240000
286      16   1 -0.20569999999999999396  8.4445490000 41.1179780000 11.4035640000
287      16   1 -0.20569999999999999396  6.7064690000 40.2764370000 12.4154260000
288      16   1 -0.20569999999999999396  7.8566220000 41.8723700000 13.3697080000
289      16   2 -0.42249999999999998668  6.0695370000 42.1988300000 10.2442610000
290      16   2 -0.40000000000000002220  3.3006400000 42.5201130000 10.9764760000
291      16   3  0.14000000000000001332  5.0737520000 41.1829940000 10.0678060000
292      16   3  0.14000000000000001332  3.8929910000 41.2359930000 11.0270020000
293      16   4  0.14230000000000000981  6.4974650000 42.5057640000 11.5429800000
294      16   3  0.53229999999999999538  7.3839980000 41.4335390000 12.1745570000
295      16   3  0.11000000000000000056  2.1641580000 42.6391670000 11.8165580000
296      16   5  0.02999999999999999889  4.7217830000 41.3382110000  9.0454190000
297      16   5  0.02999999999999999889  5.5306200000 40.1859270000 10.1370550000
298      16   5  0.02999999999999999889  3.1772480000 40.4569480000 10.7129420000
299      16   5  0.02999999999999999889  4.2006550000 40.9928230000 12.0575870000
300      16   5  0.08250000000000000389  5.6691090000 42.7075670000 12.2336060000
301      16   5  0.08250000000000000389  7.1074310000 43.4093750000 11.4607150000
302      16   5  0.02999999999999999889  1.3699250000 41.9361340000 11.5193360000
303      16   5  0.02999999999999999889  2.4225580000 42.4543320000 12.8715560000
304      16   5  0.02999999999999999889  1.7962260000 43.6627140000 11.7110010000
305      17   1 -0.20569999999999999396 22.9243640000 58.3096610000 34.6473510000
306      17   1 -0.20569999999999999396 21.1090830000 57.1621430000 35.0227650000
307      17   1 -0.20569999999999999396 21.2945630000 59.1955340000 35.8047030000
308      17   2 -0.42249999999999998668 21.3035030000 58.3223180000 32.2967010000
309      17   2 -0.40000000000000002220 18.5406340000 57.8660480000 31.6151390000
310      17   3  0.14000000000000001332 20.7459280000 57.0254080000 32.0481480000
311      17   3  0.14000000000000001332 19.2573520000 56.8768840000 32.3294700000
312      17   4  0.14230000000000000981 20.9508870000 58.9937410000 33.4751990000
313      17   3  0.53229999999999999538 21.5822650000 58.4072660000 34.7369060000
314      17   3  0.11000000000000000056 17.1369300000 57.7702340000 31.7938440000
315      17   5  0.02999999999999999889 20.9356580000 56.8597750000 30.9852180000
316      17   5  0.02999999999999999889 21.2847050000 56.2621200000 32.6267480000
317      17   5  0.02999999999999999889 18.9602690000 55.8635280000 32.0090250000
318      17   5  0.02999999999999999889 19.0428160000 56.9482590000 33.4087170000
319      17   5  0.08250000000000000389 19.8664810000 59.0455130000 33.6340890000
320      17   5  0.08250000000000000389 21.3351540000 60.0124770000 33.3759430000
321      17   5  0.02999999999999999889 16.7508360000 56.8052030000 31.4290850000
322      17   5  0.02999999999999999889 16.8575310000 57.8844410000 32.8534890000
323      17   5  0.02999999999999999889 16.6863770000 58.5798340000 31.2144340000