Generated by pymatgen.io.lammps.data.LammpsData

17145  atoms
16367  bonds
28601  angles
25359  dihedrals

   17  atom types
   15  bond types
   22  angle types
   18  dihedral types

-0.2500000000 60.2500000000  xlo xhi
-0.2500000000 60.2500000000  ylo yhi
-0.2500000000 60.2500000000  zlo zhi

Masses

1   30.973762
2   15.999400
3   15.999400
4   12.010700
5    1.007940
6   14.010000
7   32.060000
8   16.000000
9   12.010000
10  19.000000
11  16.000000
12  12.010000
13  12.010000
14   1.008000
15  32.060000
16  32.060000
17   6.941000

Pair Coeffs

1     0.2000  3.740000
2     0.1400  2.850000
3     0.2000  2.980000
4     0.0660  3.500000
5     0.0300  2.500000
6       0.17  3.249999
7       0.25  3.549340
8       0.21  2.959566
9      0.066  3.499450
10     0.053  2.948875
11      0.14  2.900000
12     0.066  3.500000
13     0.066  3.500000
14      0.03  2.500000
15  0.344001  3.590322
16  0.344001  3.590322
17  0.165057  1.506000

Bond Coeffs

1   405.00  1.623
2   675.00  1.490
3   320.00  1.410
4   340.00  1.090
5   441.80  1.323
6   235.40  1.818
7   637.10  1.442
8   372.00  1.570
9   320.00  1.410
10  320.00  1.380
11  268.00  1.529
12  340.00  1.090
13  340.00  1.090
14  157.87  2.133
15  154.36  2.117


Angle Coeffs

1   120.00  102.380
2   100.00  115.861
3    75.00  119.246
4    35.00  109.500
5    33.00  107.800
6    93.30  107.100
7    82.90  111.800
8   104.00  102.600
9   115.80  118.500
10   94.30  113.600
11   97.50  100.200
12   80.20  125.600
13   60.00  109.500
14   50.00  109.500
15   35.00  109.500
16   37.50  110.700
17   33.00  107.800
18   92.60  111.550
19   35.00  109.500
20   33.00  109.500
21   73.56  112.740
22   73.56  112.740


Dihedral Coeffs

1 3 0.918000000 1 0.000000000 0.229000000 2 180.000000000 0.320500000 3 0.000000000
2 1 0.000000000 1 0.000000000
3 1 0.030000000 3 0.000000000
4 1 0.173400000 3 0.000000000
5 1 0.158000000 3 0.000000000
6 1 -0.001800000 3 0.000000000
7 3 3.916460000 1 0.000000000 -1.245000000 2 180.000000000 -0.381800000 3 0.000000000
8 3 0.062500000 1 0.000000000 -0.011000000 2 180.000000000 0.280500000 3 0.000000000
9 3 0.062500000 1 0.000000000 -0.011000000 2 180.000000000 0.280500000 3 0.000000000
10 1 0.370500000 3 0.000000000
11 1 0.370500000 3 0.000000000
12 3 -0.533500000 1 0.000000000 -0.783500000 2 180.000000000 0.337500000 3 0.000000000
13 1 0.370500000 3 0.000000000
14 3 1.119000000 1 0.000000000 -1.163500000 2 180.000000000 -0.341500000 3 0.000000000
15 1 0.234000000 3 0.000000000
16 1 0.150000000 3 0.000000000
17 4 5.431700000 1 0.000000000 -3.590000000 2 180.000000000 1.055600000 3 0.000000000 0.058320000 4 180.000000000
18 4 5.431700000 1 0.000000000 -3.590000000 2 180.000000000 1.055600000 3 0.000000000 0.058320000 4 180.000000000


Atoms

1         1   1  1.23069999999999990514 40.4919950000 22.5621180000 46.9268900000
2         1   2 -0.46110000000000000986 38.9473500000 22.1257550000 46.8973190000
3         1   2 -0.46110000000000000986 41.0576290000 21.9090710000 45.5732140000
4         1   2 -0.46110000000000000986 41.1004290000 21.5928580000 48.0536350000
5         1   3 -0.66610000000000002540 40.7536950000 24.0134930000 47.1069640000
6         1   4  0.09289999999999999647 38.0131930000 22.9106300000 46.1259530000
7         1   4  0.09289999999999999647 42.3941620000 22.2432700000 45.1404800000
8         1   4  0.09289999999999999647 40.9656560000 21.9652810000 49.4427440000
9         1   5  0.05999999999999999778 38.1033940000 23.9712650000 46.3791320000
10        1   5  0.05999999999999999778 38.1912060000 22.7613250000 45.0555430000
11        1   5  0.05999999999999999778 37.0204270000 22.5414960000 46.3899710000
12        1   5  0.05999999999999999778 42.5318580000 23.3290930000 45.1265850000
13        1   5  0.05999999999999999778 43.1309270000 21.7779460000 45.8042620000
14        1   5  0.05999999999999999778 42.4951240000 21.8354300000 44.1330620000
15        1   5  0.05999999999999999778 41.3074790000 22.9930010000 49.5985110000
16        1   5  0.05999999999999999778 39.9219280000 21.8622740000 49.7590800000
17        1   5  0.05999999999999999778 41.5920560000 21.2676540000 50.0019700000
18        2   1  1.23069999999999990514 23.5650010000 21.5891830000 36.1669860000
19        2   2 -0.46110000000000000986 24.1603010000 22.3656470000 34.8942180000
20        2   2 -0.46110000000000000986 23.3032490000 22.7856790000 37.2056070000
21        2   2 -0.46110000000000000986 24.8712920000 20.8844500000 36.7803090000
22        2   3 -0.66610000000000002540 22.4084310000 20.6955410000 35.9002430000
23        2   4  0.09289999999999999647 23.2477110000 22.9799790000 33.9596260000
24        2   4  0.09289999999999999647 22.5820170000 22.5080270000 38.4254430000
25        2   4  0.09289999999999999647 25.3167610000 19.6299380000 36.2197340000
26        2   5  0.05999999999999999778 22.4829600000 22.2639040000 33.6440730000
27        2   5  0.05999999999999999778 22.7778100000 23.8581020000 34.4155310000
28        2   5  0.05999999999999999778 23.8538640000 23.2874800000 33.1054770000
29        2   5  0.05999999999999999778 21.6474770000 21.9818830000 38.2064170000
30        2   5  0.05999999999999999778 23.2029340000 21.9091390000 39.1005360000
31        2   5  0.05999999999999999778 22.3732650000 23.4785700000 38.8791920000
32        2   5  0.05999999999999999778 24.4876870000 18.9176890000 36.1682520000
33        2   5  0.05999999999999999778 25.7368800000 19.7934300000 35.2213260000
34        2   5  0.05999999999999999778 26.0937170000 19.2606590000 36.8918700000
35        3   1  1.23069999999999990514 40.0947560000 26.1690930000 25.6514680000
36        3   2 -0.46110000000000000986 40.2844690000 25.8475870000 24.0901030000
37        3   2 -0.46110000000000000986 40.8746630000 27.5638390000 25.8104630000
38        3   2 -0.46110000000000000986 41.1079260000 25.1309920000 26.3407050000
39        3   3 -0.66610000000000002540 38.6969740000 26.1451530000 26.1544930000
40        3   4  0.09289999999999999647 39.3900040000 26.4588120000 23.1361540000
41        3   4  0.09289999999999999647 40.7691300000 28.2863700000 27.0562870000
42        3   4  0.09289999999999999647 40.6712930000 23.7724010000 26.5644650000
43        3   5  0.05999999999999999778 38.3485070000 26.3016640000 23.4324170000
44        3   5  0.05999999999999999778 39.6021900000 27.5303580000 23.0553970000
45        3   5  0.05999999999999999778 39.5897010000 25.9700360000 22.1807640000
46        3   5  0.05999999999999999778 39.7194260000 28.4014110000 27.3444750000
47        3   5  0.05999999999999999778 41.3209670000 27.7605440000 27.8430130000
48        3   5  0.05999999999999999778 41.2222570000 29.2630820000 26.8770470000
49        3   5  0.05999999999999999778 39.7050700000 23.7604090000 27.0778690000
50        3   5  0.05999999999999999778 40.5985210000 23.2398340000 25.6099380000
51        3   5  0.05999999999999999778 41.4387390000 23.3100760000 27.1882260000
52        4   1  1.23069999999999990514 18.8885350000 16.5201320000 10.4834420000
53        4   2 -0.46110000000000000986 19.7499020000 17.2143410000 11.6467720000
54        4   2 -0.46110000000000000986 19.7904240000 15.2468150000 10.1038260000
55        4   2 -0.46110000000000000986 19.1416890000 17.5013580000  9.2375210000
56        4   3 -0.66610000000000002540 17.4671010000 16.2357860000 10.8091340000
57        4   4  0.09289999999999999647 19.6263740000 16.7214970000 12.9978940000
58        4   4  0.09289999999999999647 19.2520900000 14.2501740000  9.2081860000
59        4   4  0.09289999999999999647 18.3432410000 18.6991310000  9.1178990000
60        4   5  0.05999999999999999778 18.5733650000 16.6618900000 13.2891010000
61        4   5  0.05999999999999999778 20.0981840000 15.7366650000 13.0830920000
62        4   5  0.05999999999999999778 20.1536810000 17.4391700000 13.6291160000
63        4   5  0.05999999999999999778 18.2609750000 13.9290220000  9.5439180000
64        4   5  0.05999999999999999778 19.1939730000 14.6520590000  8.1908040000
65        4   5  0.05999999999999999778 19.9512760000 13.4124140000  9.2349450000
66        4   5  0.05999999999999999778 17.2790100000 18.4601570000  9.2051760000
67        4   5  0.05999999999999999778 18.6327060000 19.4213830000  9.8890070000
68        4   5  0.05999999999999999778 18.5612310000 19.1068410000  8.1289370000
69        5   1  1.23069999999999990514 26.3650150000 31.1694310000 36.2095140000
70        5   2 -0.46110000000000000986 26.8721170000 29.7945120000 36.8650000000
71        5   2 -0.46110000000000000986 26.6819290000 32.2370050000 37.3665380000
72        5   2 -0.46110000000000000986 24.7682790000 31.0262940000 36.3052020000
73        5   3 -0.66610000000000002540 26.9101100000 31.4877760000 34.8645500000
74        5   4  0.09289999999999999647 28.2744540000 29.4600830000 36.7922600000
75        5   4  0.09289999999999999647 26.5374220000 33.6446100000 37.0783810000
76        5   4  0.09289999999999999647 24.0712670000 30.2791330000 35.2842160000
77        5   5  0.05999999999999999778 28.6358710000 29.5461370000 35.7631070000
78        5   5  0.05999999999999999778 28.8519540000 30.1169920000 37.4515940000
79        5   5  0.05999999999999999778 28.3555820000 28.4275170000 37.1368980000
80        5   5  0.05999999999999999778 27.0755940000 33.9049670000 36.1614570000
81        5   5  0.05999999999999999778 25.4769290000 33.9004230000 36.9790370000
82        5   5  0.05999999999999999778 26.9661520000 34.1721840000 37.9323560000
83        5   5  0.05999999999999999778 24.3641880000 30.6260820000 34.2886570000
84        5   5  0.05999999999999999778 24.2853950000 29.2100030000 35.3898320000
85        5   5  0.05999999999999999778 23.0082080000 30.4616980000 35.4526500000
86        6   1  1.23069999999999990514  9.5014630000 19.3162270000  7.9192410000
87        6   2 -0.46110000000000000986 10.1069950000 19.8723210000  9.2981200000
88        6   2 -0.46110000000000000986 10.6907850000 19.6094080000  6.8807770000
89        6   2 -0.46110000000000000986  8.4272380000 20.4468790000  7.5359930000
90        6   3 -0.66610000000000002540  8.9939800000 17.9201650000  7.9487970000
91        6   4  0.09289999999999999647 10.9890740000 19.0265790000 10.0664580000
92        6   4  0.09289999999999999647 10.6004170000 19.0717850000  5.5435920000
93        6   4  0.09289999999999999647  7.1144870000 20.3956970000  8.1364530000
94        6   5  0.05999999999999999778 10.5380120000 18.0415650000 10.2196660000
95        6   5  0.05999999999999999778 11.9523680000 18.9255040000  9.5549840000
96        6   5  0.05999999999999999778 11.1308140000 19.5311310000 11.0240000000
97        6   5  0.05999999999999999778 10.3777250000 18.0005550000  5.5758340000
98        6   5  0.05999999999999999778  9.8262050000 19.6012690000  4.9777330000
99        6   5  0.05999999999999999778 11.5756320000 19.2425710000  5.0840210000
100       6   5  0.05999999999999999778  6.6780790000 19.3992310000  8.0184780000
101       6   5  0.05999999999999999778  7.1773510000 20.6572650000  9.1983740000
102       6   5  0.05999999999999999778  6.5141120000 21.1384560000  7.6076320000
103       7   1  1.23069999999999990514  3.0741170000  8.8828620000 26.0446870000
104       7   2 -0.46110000000000000986  2.7532620000  9.5604720000 27.4642340000
105       7   2 -0.46110000000000000986  2.8047020000 10.0903610000 25.0208640000
106       7   2 -0.46110000000000000986  1.7898740000  7.9465910000 25.8137600000
107       7   3 -0.66610000000000002540  4.3958510000  8.2144580000 25.9278300000
108       7   4  0.09289999999999999647  3.7779980000 10.3425520000 28.1138120000
109       7   4  0.09289999999999999647  3.1720230000  9.9268050000 23.6339280000
110       7   4  0.09289999999999999647  1.7561790000  6.6416770000 26.4322660000
111       7   5  0.05999999999999999778  4.7148550000  9.7796300000 28.1648130000
112       7   5  0.05999999999999999778  3.9314150000 11.2831880000 27.5739760000
113       7   5  0.05999999999999999778  3.4059570000 10.5502670000 29.1187940000
114       7   5  0.05999999999999999778  4.2067050000  9.5795400000 23.5502390000
115       7   5  0.05999999999999999778  2.4949720000  9.2160960000 23.1476670000
116       7   5  0.05999999999999999778  3.0645230000 10.9117580000 23.1759650000
117       7   5  0.05999999999999999778  2.6750910000  6.0898480000 26.2122680000
118       7   5  0.05999999999999999778  1.6266100000  6.7432120000 27.5152940000
119       7   5  0.05999999999999999778  0.8931540000  6.1290350000 26.0031020000
120       8   1  1.23069999999999990514 24.1633900000 10.2557660000 26.2040760000
121       8   2 -0.46110000000000000986 24.1090030000  9.8630850000 24.6484220000
122       8   2 -0.46110000000000000986 24.7542610000 11.7483230000 26.1593850000
123       8   2 -0.46110000000000000986 25.4214450000  9.4061850000 26.7282130000
124       8   3 -0.66610000000000002540 22.8982510000 10.0801620000 26.9630160000
125       8   4  0.09289999999999999647 22.9785310000 10.2891220000 23.8583530000
126       8   4  0.09289999999999999647 24.7764440000 12.5286670000 27.3742250000
127       8   4  0.09289999999999999647 25.2292180000  8.0190040000 27.0821390000
128       8   5  0.05999999999999999778 22.0412380000 10.0154560000 24.3520850000
129       8   5  0.05999999999999999778 23.0189460000 11.3719220000 23.6981440000
130       8   5  0.05999999999999999778 23.0678630000  9.7709440000 22.9017650000
131       8   5  0.05999999999999999778 23.7912490000 12.5226650000 27.8512160000
132       8   5  0.05999999999999999778 25.5309920000 12.1313350000 28.0617860000
133       8   5  0.05999999999999999778 25.0467690000 13.5430890000 27.0754110000
134       8   5  0.05999999999999999778 24.3842220000  7.9126940000 27.7691570000
135       8   5  0.05999999999999999778 25.0597590000  7.4216910000 26.1796160000
136       8   5  0.05999999999999999778 26.1549160000  7.7024780000 27.5665860000
137       9   1  1.23069999999999990514 17.2660840000 18.8309170000 56.8114350000
138       9   2 -0.46110000000000000986 17.9572900000 19.4747840000 58.1094660000
139       9   2 -0.46110000000000000986 18.5350780000 18.4041840000 55.9246400000
140       9   2 -0.46110000000000000986 16.7256330000 20.1271490000 56.0323930000
141       9   3 -0.66610000000000002540 16.2656330000 17.7634350000 57.0702490000
142       9   4  0.09289999999999999647 18.4064540000 18.6025430000 59.1683020000
143       9   4  0.09289999999999999647 18.3241450000 17.6056350000 54.7401180000
144       9   4  0.09289999999999999647 15.4597010000 20.7012020000 56.4252920000
145       9   5  0.05999999999999999778 17.6071140000 17.9166230000 59.4645300000
146       9   5  0.05999999999999999778 19.2868050000 18.0383170000 58.8421300000
147       9   5  0.05999999999999999778 18.6740300000 19.2545930000 60.0018390000
148       9   5  0.05999999999999999778 17.7098520000 16.7300830000 54.9729690000
149       9   5  0.05999999999999999778 17.8428540000 18.2081410000 53.9621080000
150       9   5  0.05999999999999999778 19.3157740000 17.2949840000 54.4060750000
151       9   5  0.05999999999999999778 14.6850940000 19.9293640000 56.4648240000
152       9   5  0.05999999999999999778 15.5561850000 21.1898940000 57.4009540000
153       9   5  0.05999999999999999778 15.2177880000 21.4435350000 55.6622630000
154      10   1  1.23069999999999990514  8.3505850000 46.6631760000  4.3392770000
155      10   2 -0.46110000000000000986  7.5433920000 47.7004250000  3.4174470000
156      10   2 -0.46110000000000000986  7.4830040000 46.6599940000  5.6906260000
157      10   2 -0.46110000000000000986  9.6426050000 47.5167060000  4.7651650000
158      10   3 -0.66610000000000002540  8.6199970000 45.3320350000  3.7368790000
159      10   4  0.09289999999999999647  6.3934200000 47.2334400000  2.6804440000
160      10   4  0.09289999999999999647  7.7877590000 45.6893130000  6.7154040000
161      10   4  0.09289999999999999647 10.7639670000 47.5869950000  3.8573670000
162      10   5  0.05999999999999999778  6.6433780000 46.3335870000  2.1103830000
163      10   5  0.05999999999999999778  5.5653440000 47.0276360000  3.3672410000
164      10   5  0.05999999999999999778  6.1192380000 48.0456860000  2.0047000000
165      10   5  0.05999999999999999778  7.8318630000 44.6824900000  6.2881730000
166      10   5  0.05999999999999999778  8.7403970000 45.9373760000  7.1959250000
167      10   5  0.05999999999999999778  6.9779550000 45.7567320000  7.4441630000
168      10   5  0.05999999999999999778 11.0588320000 46.5838730000  3.5347020000
169      10   5  0.05999999999999999778 10.5053440000 48.2024270000  2.9888030000
170      10   5  0.05999999999999999778 11.5734280000 48.0592710000  4.4172970000
171      11   1  1.23069999999999990514 26.1516390000 47.1492090000 22.4466690000
172      11   2 -0.46110000000000000986 27.1512730000 47.2187420000 23.7009080000
173      11   2 -0.46110000000000000986 26.0152970000 45.5674000000 22.2055430000
174      11   2 -0.46110000000000000986 27.0973040000 47.5997830000 21.2293320000
175      11   3 -0.66610000000000002540 24.8758750000 47.8969640000 22.5905160000
176      11   4  0.09289999999999999647 26.6158700000 47.0599400000 25.0320010000
177      11   4  0.09289999999999999647 25.0332490000 45.0854640000 21.2628950000
178      11   4  0.09289999999999999647 27.3042610000 49.0091570000 20.9899100000
179      11   5  0.05999999999999999778 25.7662610000 47.7320140000 25.1858250000
180      11   5  0.05999999999999999778 26.3091920000 46.0206580000 25.1919930000
181      11   5  0.05999999999999999778 27.4283250000 47.3143110000 25.7152020000
182      11   5  0.05999999999999999778 24.0530260000 45.5251150000 21.4727430000
183      11   5  0.05999999999999999778 25.3440960000 45.3269840000 20.2406440000
184      11   5  0.05999999999999999778 24.9983410000 44.0021770000 21.3920760000
185      11   5  0.05999999999999999778 26.3454790000 49.5343490000 20.9427530000
186      11   5  0.05999999999999999778 27.9302900000 49.4360050000 21.7810700000
187      11   5  0.05999999999999999778 27.8222850000 49.0771910000 20.0313610000
188      12   1  1.23069999999999990514 27.4792660000 29.1715090000 46.8550460000
189      12   2 -0.46110000000000000986 28.5057030000 28.7229610000 48.0050240000
190      12   2 -0.46110000000000000986 27.3621960000 30.7543100000 47.0997620000
191      12   2 -0.46110000000000000986 26.0753280000 28.6340090000 47.4200800000
192      12   3 -0.66610000000000002540 27.8279400000 28.7516400000 45.4731860000
193      12   4  0.09289999999999999647 29.9231440000 28.8658160000 47.7723440000
194      12   4  0.09289999999999999647 26.6612310000 31.5622820000 46.1296610000
195      12   4  0.09289999999999999647 25.7182230000 27.2512430000 47.2034650000
196      12   5  0.05999999999999999778 30.2020050000 28.4123340000 46.8164300000
197      12   5  0.05999999999999999778 30.2006310000 29.9253650000 47.7830150000
198      12   5  0.05999999999999999778 30.4168600000 28.3467190000 48.5959540000
199      12   5  0.05999999999999999778 27.0341860000 31.3589330000 45.1208410000
200      12   5  0.05999999999999999778 25.5854820000 31.3622560000 46.1817040000
201      12   5  0.05999999999999999778 26.8575700000 32.6002730000 46.4043310000
202      12   5  0.05999999999999999778 25.8304530000 26.9877320000 46.1473970000
203      12   5  0.05999999999999999778 26.3442960000 26.6006130000 47.8237560000
204      12   5  0.05999999999999999778 24.6740840000 27.1602060000 47.5088840000
205      13   1  1.23069999999999990514 57.8919000000 14.6018720000 43.1698740000
206      13   2 -0.46110000000000000986 58.6428730000 14.4089310000 41.7641610000
207      13   2 -0.46110000000000000986 59.1183080000 14.6999740000 44.2019340000
208      13   2 -0.46110000000000000986 57.3202750000 13.1289800000 43.4580490000
209      13   3 -0.66610000000000002540 56.9012900000 15.7074860000 43.2308000000
210      13   4  0.09289999999999999647 59.1371140000 15.5736350000 41.0692690000
211      13   4  0.09289999999999999647 58.8518300000 15.0703070000 45.5720110000
212      13   4  0.09289999999999999647 56.0749800000 12.7302810000 42.8442350000
213      13   5  0.05999999999999999778 58.3501370000 16.3284110000 40.9789310000
214      13   5  0.05999999999999999778 60.0002710000 15.9895570000 41.6000480000
215      13   5  0.05999999999999999778 59.4438980000 15.2264110000 40.0809020000
216      13   5  0.05999999999999999778 58.2463280000 15.9813320000 45.6115660000
217      13   5  0.05999999999999999778 58.3374700000 14.2526440000 46.0885530000
218      13   5  0.05999999999999999778 59.8264840000 15.2426530000 46.0321910000
219      13   5  0.05999999999999999778 55.3008620000 13.4821030000 43.0253960000
220      13   5  0.05999999999999999778 56.2168350000 12.5859590000 41.7676230000
221      13   5  0.05999999999999999778 55.8008070000 11.7824400000 43.3113760000
222      14   1  1.23069999999999990514  3.0034200000  6.4859220000  4.0064420000
223      14   2 -0.46110000000000000986  1.7403820000  6.9427050000  3.1270660000
224      14   2 -0.46110000000000000986  4.0951150000  7.6066900000  3.6446000000
225      14   2 -0.46110000000000000986  3.5426610000  5.2094910000  3.1945590000
226      14   3 -0.66610000000000002540  2.7446610000  6.2742350000  5.4540730000
227      14   4  0.09289999999999999647  0.8628290000  7.9666260000  3.6420120000
228      14   4  0.09289999999999999647  5.3286030000  7.6496710000  4.3942170000
229      14   4  0.09289999999999999647  2.9196130000  3.9254700000  3.4172460000
230      14   5  0.05999999999999999778  0.5480230000  7.7241180000  4.6614580000
231      14   5  0.05999999999999999778  1.3680260000  8.9383250000  3.6237450000
232      14   5  0.05999999999999999778 -0.0002290000  7.9867880000  2.9739750000
233      14   5  0.05999999999999999778  5.1234230000  7.6502520000  5.4694220000
234      14   5  0.05999999999999999778  5.9580120000  6.7927400000  4.1306450000
235      14   5  0.05999999999999999778  5.8258000000  8.5766110000  4.1026770000
236      14   5  0.05999999999999999778  2.8709640000  3.7040040000  4.4877140000
237      14   5  0.05999999999999999778  1.9137080000  3.9164440000  2.9835180000
238      14   5  0.05999999999999999778  3.5491530000  3.1944710000  2.9062520000
239      15   1  1.23069999999999990514 27.6152950000  7.0691190000 40.8000410000
240      15   2 -0.46110000000000000986 27.4098630000  7.0534800000 39.2079450000
241      15   2 -0.46110000000000000986 28.7273330000  8.2119870000 40.9899720000
242      15   2 -0.46110000000000000986 28.4598960000  5.7261860000 41.0498230000
243      15   3 -0.66610000000000002540 26.3810280000  7.2219150000 41.6128400000
244      15   4  0.09289999999999999647 26.5218080000  8.0201890000 38.6075150000
245      15   4  0.09289999999999999647 29.0484200000  8.6608700000 42.3243910000
246      15   4  0.09289999999999999647 27.7579680000  4.4677050000 41.1498750000
247      15   5  0.05999999999999999778 25.5527240000  8.0174170000 39.1155000000
248      15   5  0.05999999999999999778 26.9687290000  9.0192110000 38.6519390000
249      15   5  0.05999999999999999778 26.4042890000  7.7144510000 37.5662350000
250      15   5  0.05999999999999999778 28.1363280000  8.9217650000 42.8704550000
251      15   5  0.05999999999999999778 29.5990240000  7.8803200000 42.8606110000
252      15   5  0.05999999999999999778 29.6816460000  9.5414030000 42.2014960000
253      15   5  0.05999999999999999778 26.9384850000  4.5426540000 41.8710850000
254      15   5  0.05999999999999999778 27.3711900000  4.1748840000 40.1676810000
255      15   5  0.05999999999999999778 28.4967460000  3.7388350000 41.4886190000
256      16   1  1.23069999999999990514 40.9119640000 33.9313050000 28.3912720000
257      16   2 -0.46110000000000000986 41.0686210000 33.0071510000 27.0879630000
258      16   2 -0.46110000000000000986 42.3779680000 33.8553450000 29.0423580000
259      16   2 -0.46110000000000000986 40.0531680000 32.9952910000 29.3739000000
260      16   3 -0.66610000000000002540 40.3741680000 35.2966190000 28.1586910000
261      16   4  0.09289999999999999647 41.6330820000 33.5787440000 25.8886510000
262      16   4  0.09289999999999999647 42.6971350000 34.7242430000 30.1506970000
263      16   4  0.09289999999999999647 38.6169350000 32.9574060000 29.2246100000
264      16   5  0.05999999999999999778 41.1235900000 34.5126670000 25.6329430000
265      16   5  0.05999999999999999778 42.7047040000 33.7585870000 26.0266360000
266      16   5  0.05999999999999999778 41.4816090000 32.8372110000 25.1020540000
267      16   5  0.05999999999999999778 42.4394920000 35.7607800000 29.9111630000
268      16   5  0.05999999999999999778 42.1601490000 34.3998070000 31.0486620000
269      16   5  0.05999999999999999778 43.7728560000 34.6278070000 30.3086300000
270      16   5  0.05999999999999999778 38.2067460000 33.9717090000 29.2088270000
271      16   5  0.05999999999999999778 38.3494230000 32.4273690000 28.3039890000
272      16   5  0.05999999999999999778 38.2402630000 32.4086680000 30.0899420000
273      17   1  1.23069999999999990514 32.7860750000 58.5716050000 50.7689780000
274      17   2 -0.46110000000000000986 32.3070930000 57.6038360000 51.9569250000
275      17   2 -0.46110000000000000986 31.8093660000 58.1467430000 49.5671540000
276      17   2 -0.46110000000000000986 34.1799840000 57.9076390000 50.3269620000
277      17   3 -0.66610000000000002540 32.8290690000 60.0216650000 51.0897260000
278      17   4  0.09289999999999999647 31.1624630000 57.9834970000 52.7502490000
279      17   4  0.09289999999999999647 31.8032890000 58.9363320000 48.3581140000
280      17   4  0.09289999999999999647 35.3743880000 58.2280510000 51.0734360000
281      17   5  0.05999999999999999778 31.2734200000 59.0084470000 53.1167840000
282      17   5  0.05999999999999999778 30.2467120000 57.8917810000 52.1563250000
283      17   5  0.05999999999999999778 31.1311630000 57.2834420000 53.5872040000
284      17   5  0.05999999999999999778 31.6776670000 59.9976890000 48.5945580000
285      17   5  0.05999999999999999778 32.7352070000 58.7809840000 47.8037210000
286      17   5  0.05999999999999999778 30.9582720000 58.5767990000 47.7681140000
287      17   5  0.05999999999999999778 35.4833500000 59.3121150000 51.1746640000
288      17   5  0.05999999999999999778 35.3359450000 57.7582720000 52.0623120000
289      17   5  0.05999999999999999778 36.2060500000 57.8145300000 50.4997350000
290      18   1  1.23069999999999990514 30.0711580000 45.0944270000 47.6718090000
291      18   2 -0.46110000000000000986 29.4102570000 46.5554360000 47.7484760000
292      18   2 -0.46110000000000000986 30.9721360000 45.1959760000 46.3463750000
293      18   2 -0.46110000000000000986 28.8408390000 44.1871370000 47.1795170000
294      18   3 -0.66610000000000002540 30.7700200000 44.6323650000 48.8987950000
295      18   4  0.09289999999999999647 30.1642580000 47.6342350000 48.3412330000
296      18   4  0.09289999999999999647 31.8864420000 44.1216570000 46.0379110000
297      18   4  0.09289999999999999647 27.8903560000 43.7090510000 48.1565040000
298      18   5  0.05999999999999999778 30.5483370000 47.3392190000 49.3223710000
299      18   5  0.05999999999999999778 30.9910940000 47.9208830000 47.6824970000
300      18   5  0.05999999999999999778 29.4671260000 48.4680610000 48.4426710000
301      18   5  0.05999999999999999778 32.5106570000 43.8888480000 46.9064270000
302      18   5  0.05999999999999999778 31.3286590000 43.2323700000 45.7248600000
303      18   5  0.05999999999999999778 32.5040580000 44.4798250000 45.2122700000
304      18   5  0.05999999999999999778 28.4087350000 43.2282270000 48.9916120000
305      18   5  0.05999999999999999778 27.2768810000 44.5402560000 48.5209110000
306      18   5  0.05999999999999999778 27.2609400000 42.9865640000 47.6333970000
307      19   1  1.23069999999999990514 13.6328070000 43.1391760000 10.2244460000
308      19   2 -0.46110000000000000986 14.4530160000 44.4194920000 10.7394850000
309      19   2 -0.46110000000000000986 13.6543530000 43.3377860000  8.6310410000
310      19   2 -0.46110000000000000986 12.1199250000 43.5289540000 10.5965680000
311      19   3 -0.66610000000000002540 14.1060730000 41.8214740000 10.7215200000
312      19   4  0.09289999999999999647 15.8955600000 44.3682240000 10.7505740000
313      19   4  0.09289999999999999647 13.1706570000 42.2710450000  7.7864290000
314      19   4  0.09289999999999999647 11.6483380000 43.2936370000 11.9414540000
315      19   5  0.05999999999999999778 16.2428110000 43.4645170000 11.2603900000
316      19   5  0.05999999999999999778 16.2802570000 44.3950330000  9.7253690000
317      19   5  0.05999999999999999778 16.2238900000 45.2577980000 11.2913200000
318      19   5  0.05999999999999999778 13.6438950000 41.3223820000  8.0589150000
319      19   5  0.05999999999999999778 12.0818130000 42.1881400000  7.8730370000
320      19   5  0.05999999999999999778 13.4398110000 42.5495940000  6.7659460000
321      19   5  0.05999999999999999778 11.8639700000 42.2657390000 12.2484420000
322      19   5  0.05999999999999999778 12.1188560000 44.0010210000 12.6330220000
323      19   5  0.05999999999999999778 10.5703500000 43.4640280000 11.9149250000
324      20   1  1.23069999999999990514  5.0897470000 42.2826190000 45.5925420000
325      20   2 -0.46110000000000000986  3.7527630000 42.7333840000 44.8267080000
326      20   2 -0.46110000000000000986  5.0327370000 40.6826820000 45.4668430000
327      20   2 -0.46110000000000000986  4.6986990000 42.5181740000 47.1322850000
328      20   3 -0.66610000000000002540  6.3485370000 42.9259280000 45.1353730000
329      20   4  0.09289999999999999647  3.7741390000 42.8436680000 43.3875890000
330      20   4  0.09289999999999999647  6.1795410000 39.9073020000 45.8778110000
331      20   4  0.09289999999999999647  4.8232400000 43.8448950000 47.6897690000
332      20   5  0.05999999999999999778  4.6220230000 43.4542150000 43.0627710000