Generated by pymatgen.io.lammps.data.LammpsData

15830  atoms
15229  bonds
27694  angles
30159  dihedrals

   17  atom types
   18  bond types
   32  angle types
   32  dihedral types

-0.2500000000 60.2500000000  xlo xhi
-0.2500000000 60.2500000000  ylo yhi
-0.2500000000 60.2500000000  zlo zhi

Masses

1   18.998403
2   15.999400
3   12.010700
4   12.010700
5    1.007940
6   14.010000
7   32.060000
8   16.000000
9   12.010000
10  19.000000
11  16.000000
12  12.010000
13  12.010000
14   1.008000
15  32.060000
16  32.060000
17   6.941000

Pair Coeffs

1     0.0530  2.950000
2     0.1400  2.900000
3     0.0620  3.250000
4     0.0660  3.500000
5     0.0300  2.500000
6       0.17  3.249999
7       0.25  3.549340
8       0.21  2.959566
9      0.066  3.499450
10     0.053  2.948875
11      0.14  2.900000
12     0.066  3.500000
13     0.066  3.500000
14      0.03  2.500000
15  0.344001  3.590322
16  0.344001  3.590322
17  0.165057  1.506000

Bond Coeffs

1   367.00  1.332
2   455.00  1.355
3   320.00  1.410
4   470.00  1.351
5   268.00  1.529
6   340.00  1.090
7   268.00  1.529
8   441.80  1.323
9   235.40  1.818
10  637.10  1.442
11  372.00  1.570
12  320.00  1.410
13  320.00  1.380
14  268.00  1.529
15  340.00  1.090
16  340.00  1.090
17  157.87  2.133
18  154.36  2.117


Angle Coeffs

1    90.00  114.194
2    77.00  109.100
3    50.00  109.500
4    58.35  112.700
5    50.00  109.500
6    35.00  109.500
7    37.50  110.700
8    33.00  107.800
9    40.00  107.000
10  110.00  107.787
11  110.00  110.361
12   50.00  109.500
13   50.00  109.500
14   50.00  109.500
15   37.50  110.700
16   93.30  107.100
17   82.90  111.800
18  104.00  102.600
19  115.80  118.500
20   94.30  113.600
21   97.50  100.200
22   80.20  125.600
23   60.00  109.500
24   50.00  109.500
25   35.00  109.500
26   37.50  110.700
27   33.00  107.800
28   92.60  111.550
29   35.00  109.500
30   33.00  109.500
31   73.56  112.740
32   73.56  112.740


Dihedral Coeffs

1 3 0.062500000 1 0.000000000 -0.011000000 2 180.000000000 0.280500000 3 0.000000000
2 3 0.062500000 1 0.000000000 -0.011000000 2 180.000000000 0.280500000 3 0.000000000
3 1 0.370500000 3 0.000000000
4 1 0.370500000 3 0.000000000
5 3 1.726500000 1 0.000000000 -1.387000000 2 180.000000000 0.335500000 3 0.000000000
6 3 0.062500000 1 0.000000000 -0.011000000 2 180.000000000 0.280500000 3 0.000000000
7 3 0.301000000 1 0.000000000 -1.359500000 2 180.000000000 0.367000000 3 0.000000000
8 3 0.396500000 1 0.000000000 -0.183500000 2 180.000000000 0.414500000 3 0.000000000
9 3 0.567500000 1 0.000000000 -0.075500000 2 180.000000000 0.200000000 3 0.000000000
10 2 0.518500000 1 0.000000000 -0.728500000 2 180.000000000
11 1 0.221000000 3 0.000000000
12 3 0.627500000 1 0.000000000 -0.309500000 2 180.000000000 0.273000000 3 0.000000000
13 1 0.150000000 3 0.000000000
14 3 0.301000000 1 0.000000000 -1.359500000 2 180.000000000 0.367000000 3 0.000000000
15 1 0.221000000 3 0.000000000
16 2 0.518500000 1 0.000000000 -0.728500000 2 180.000000000
17 1 0.234000000 3 0.000000000
18 1 0.173400000 3 0.000000000
19 1 0.158000000 3 0.000000000
20 1 -0.001800000 3 0.000000000
21 3 3.916460000 1 0.000000000 -1.245000000 2 180.000000000 -0.381800000 3 0.000000000
22 3 0.062500000 1 0.000000000 -0.011000000 2 180.000000000 0.280500000 3 0.000000000
23 3 0.062500000 1 0.000000000 -0.011000000 2 180.000000000 0.280500000 3 0.000000000
24 1 0.370500000 3 0.000000000
25 1 0.370500000 3 0.000000000
26 3 -0.533500000 1 0.000000000 -0.783500000 2 180.000000000 0.337500000 3 0.000000000
27 1 0.370500000 3 0.000000000
28 3 1.119000000 1 0.000000000 -1.163500000 2 180.000000000 -0.341500000 3 0.000000000
29 1 0.234000000 3 0.000000000
30 1 0.150000000 3 0.000000000
31 4 5.431700000 1 0.000000000 -3.590000000 2 180.000000000 1.055600000 3 0.000000000 0.058320000 4 180.000000000
32 4 5.431700000 1 0.000000000 -3.590000000 2 180.000000000 1.055600000 3 0.000000000 0.058320000 4 180.000000000


Atoms

1         1   1 -0.11999999999999999556 13.9496450000 45.7222190000  8.2319130000
2         1   1 -0.11999999999999999556 14.2815220000 45.9005480000 10.4035150000
3         1   1 -0.11999999999999999556 14.4616510000 48.2438510000  9.2353510000
4         1   1 -0.11999999999999999556 12.5916190000 47.9693380000  8.1034440000
5         1   1 -0.11999999999999999556 11.6839220000 45.5487960000 10.9216840000
6         1   1 -0.11999999999999999556 11.1434390000 45.7641470000  8.7945210000
7         1   1 -0.11999999999999999556 13.2332620000 43.3220030000 10.2562740000
8         1   1 -0.11999999999999999556 11.0996760000 43.2056520000  9.6909820000
9         1   1 -0.23260000000000000120 12.2354340000 49.9847180000 12.6598570000
10        1   1 -0.23260000000000000120 11.1420960000 48.1039560000 12.8646350000
11        1   1 -0.11999999999999999556 14.4496410000 48.8376550000 13.9002390000
12        1   1 -0.11999999999999999556 12.5888870000 48.6979930000 15.0846080000
13        1   2 -0.36299999999999998934 13.0286310000 48.1420300000 11.6323880000
14        1   3  0.23999999999999999112 13.4048280000 46.1590050000  9.4067260000
15        1   3  0.23999999999999999112 13.2113740000 47.7067560000  9.2922170000
16        1   3  0.23999999999999999112 12.1123830000 45.3282020000  9.6525360000
17        1   3  0.12149999999999999689 12.3945000000 48.3993670000 10.3762370000
18        1   3  0.08999999999999999667 12.2857640000 43.8102880000  9.4117680000
19        1   4  0.64670000000000005258 12.4017090000 48.6309230000 12.7301010000
20        1   3  0.08999999999999999667 13.2282500000 48.2440830000 13.9735040000
21        1   5  0.02999999999999999889 12.4007600000 49.4687810000 10.1477520000
22        1   5  0.02999999999999999889 11.3704450000 48.0189220000 10.3677420000
23        1   5  0.14999999999999999445 12.5679670000 43.5944690000  8.3788330000
24        1   5  0.14999999999999999445 13.3513610000 47.1595850000 14.0390450000
25        2   1 -0.11999999999999999556 45.8782100000 59.6630340000 23.1978380000
26        2   1 -0.11999999999999999556 45.8859630000 57.4663210000 23.3772610000
27        2   1 -0.11999999999999999556 44.3807670000 58.2343560000 21.3691200000
28        2   1 -0.11999999999999999556 45.9153460000 59.5982900000 20.5701560000
29        2   1 -0.11999999999999999556 48.3675670000 57.3040110000 22.3999950000
30        2   1 -0.11999999999999999556 48.3529530000 59.4203530000 21.7801530000
31        2   1 -0.11999999999999999556 48.0186420000 58.1235110000 25.0473520000
32        2   1 -0.11999999999999999556 49.7996820000 58.9366380000 24.0216810000
33        2   1 -0.23260000000000000120 46.0269220000 54.8566190000 19.0037510000
34        2   1 -0.23260000000000000120 47.9177320000 55.0665100000 20.0786340000
35        2   1 -0.11999999999999999556 44.9134800000 53.5649390000 21.2057560000
36        2   1 -0.11999999999999999556 46.7779070000 52.6331120000 20.4707380000
37        2   2 -0.36299999999999998934 46.0726880000 56.0579820000 20.9103150000
38        2   3  0.23999999999999999112 46.3345130000 58.5041560000 22.6351810000
39        2   3  0.23999999999999999112 45.7217760000 58.4015420000 21.1998790000
40        2   3  0.23999999999999999112 47.8883310000 58.5355310000 22.7109090000
41        2   3  0.12149999999999999689 46.2693600000 57.3233030000 20.2727080000
42        2   3  0.08999999999999999667 48.4416640000 58.9846460000 24.0835750000
43        2   4  0.64670000000000005258 46.5601670000 54.9760750000 20.2554390000
44        2   3  0.08999999999999999667 46.2603320000 53.7214130000 21.1008890000
45        2   5  0.02999999999999999889 45.7004190000 57.3832840000 19.3407220000
46        2   5  0.02999999999999999889 47.3290030000 57.5052070000 20.0788850000
47        2   5  0.14999999999999999445 48.1262110000 60.0000000000 24.3340080000
48        2   5  0.14999999999999999445 46.6977380000 53.8091420000 22.0991720000
49        3   1 -0.11999999999999999556 11.7761330000 20.7314630000 43.0653590000
50        3   1 -0.11999999999999999556 12.0886620000 22.6610000000 44.0836990000
51        3   1 -0.11999999999999999556  9.9415220000 22.7371380000 42.5763460000
52        3   1 -0.11999999999999999556  9.1655910000 20.8292260000 43.3582640000
53        3   1 -0.11999999999999999556 11.2910720000 21.6568760000 46.4279130000
54        3   1 -0.11999999999999999556 10.5443420000 19.8111940000 45.4796650000
55        3   1 -0.11999999999999999556 13.8545670000 21.0399590000 45.5061020000
56        3   1 -0.11999999999999999556 12.9027540000 19.5067030000 46.7822130000
57        3   1 -0.23260000000000000120  7.9008130000 24.9927600000 45.8107840000
58        3   1 -0.23260000000000000120  9.0849240000 23.8932670000 47.2816970000
59        3   1 -0.11999999999999999556 10.0978140000 26.6075350000 45.2427160000
60        3   1 -0.11999999999999999556  9.5469420000 26.5673470000 47.3827080000
61        3   2 -0.36299999999999998934  9.7297400000 23.8695880000 45.1224030000
62        3   3  0.23999999999999999112 11.3166000000 21.5509390000 44.0578720000
63        3   3  0.23999999999999999112  9.8524390000 21.9618100000 43.6925130000
64        3   3  0.23999999999999999112 11.4939490000 20.7897150000 45.4032910000
65        3   3  0.12149999999999999689  9.0310860000 22.6752470000 44.7595080000
66        3   3  0.08999999999999999667 12.8707310000 20.1026520000 45.5598510000
67        3   4  0.64670000000000005258  9.1757750000 24.6085430000 46.1144160000
68        3   3  0.08999999999999999667 10.0738840000 25.8374760000 46.3633970000
69        3   5  0.02999999999999999889  8.0612440000 22.9109640000 44.3125900000
70        3   5  0.02999999999999999889  8.8978250000 22.0200120000 45.6234580000
71        3   5  0.14999999999999999445 13.0374380000 19.3503090000 44.7856680000
72        3   5  0.14999999999999999445 11.0919960000 25.5319890000 46.6197440000
73        4   1 -0.11999999999999999556 54.0388590000 10.1841140000 40.1110410000
74        4   1 -0.11999999999999999556 54.5159000000 11.1913290000 38.2095280000
75        4   1 -0.11999999999999999556 55.1888530000  8.6561860000 38.1184010000
76        4   1 -0.11999999999999999556 53.2511810000  7.9781330000 38.9179400000
77        4   1 -0.11999999999999999556 51.9398540000 11.2812920000 37.5055040000
78        4   1 -0.11999999999999999556 51.3567150000  9.9267370000 39.1451530000
79        4   1 -0.11999999999999999556 52.8767190000 13.1033280000 39.4040020000
80        4   1 -0.11999999999999999556 50.7505840000 12.5307030000 39.5961740000
81        4   1 -0.23260000000000000120 53.6228390000  8.5167650000 33.9660440000
82        4   1 -0.23260000000000000120 52.1246290000 10.0098390000 34.5143930000
83        4   1 -0.11999999999999999556 55.5608570000 10.5111940000 33.8132320000
84        4   1 -0.11999999999999999556 53.7845200000 10.8919590000 32.5545470000
85        4   2 -0.36299999999999998934 53.8992550000  9.6952380000 35.8673990000
86        4   3  0.23999999999999999112 53.6756470000 10.3111560000 38.7996550000
87        4   3  0.23999999999999999112 53.8512420000  8.9124700000 38.1222230000
88        4   3  0.23999999999999999112 52.2368970000 10.9031560000 38.7750530000
89        4   3  0.12149999999999999689 53.2805050000  8.7286700000 36.7213060000
90        4   3  0.08999999999999999667 52.0305190000 12.0934460000 39.7408240000
91        4   4  0.64670000000000005258 53.4648490000  9.7245210000 34.5838670000
92        4   3  0.08999999999999999667 54.2386410000 10.8286330000 33.8348350000
93        4   5  0.02999999999999999889 53.5297780000  7.7119970000 36.4048720000
94        4   5  0.02999999999999999889 52.1962450000  8.8605670000 36.7432700000
95        4   5  0.14999999999999999445 52.1991220000 11.8042980000 40.7806010000
96        4   5  0.14999999999999999445 54.1027750000 11.7990080000 34.3201190000
97        5   1 -0.11999999999999999556 45.1422130000 42.5517870000  9.4832360000
98        5   1 -0.11999999999999999556 43.2562070000 42.9639670000  8.4198030000
99        5   1 -0.11999999999999999556 44.7117020000 41.2237150000  7.1002650000
100       5   1 -0.11999999999999999556 45.0936620000 39.9921180000  8.8865650000
101       5   1 -0.11999999999999999556 41.8439680000 41.5364840000 10.1826500000
102       5   1 -0.11999999999999999556 43.6690990000 40.7054490000 11.1000370000
103       5   1 -0.11999999999999999556 42.6995360000 44.0951900000 10.9057390000
104       5   1 -0.11999999999999999556 42.4848730000 42.6537090000 12.5674650000
105       5   1 -0.23260000000000000120 40.9930050000 38.9600920000  6.2277950000
106       5   1 -0.23260000000000000120 40.1844320000 39.6083270000  8.1514860000
107       5   1 -0.11999999999999999556 40.4412420000 41.4666610000  5.1462760000
108       5   1 -0.11999999999999999556 38.6870370000 40.4815180000  6.0610990000
109       5   2 -0.36299999999999998934 41.9787080000 40.6772770000  7.3048360000
110       5   3  0.23999999999999999112 43.9199710000 42.0391280000  9.1499210000
111       5   3  0.23999999999999999112 44.1631670000 40.7741230000  8.2629670000
112       5   3  0.23999999999999999112 43.1427400000 41.8006050000 10.4766040000
113       5   3  0.12149999999999999689 42.9663690000 39.8795160000  7.9638980000
114       5   3  0.08999999999999999667 43.2274560000 42.9787180000 11.4750870000
115       5   4  0.64670000000000005258 40.8071440000 40.0602270000  7.0155120000
116       5   3  0.08999999999999999667 39.8798790000 41.0797730000  6.3230000000
117       5   5  0.02999999999999999889 43.3210990000 39.0783410000  7.3095450000
118       5   5  0.02999999999999999889 42.5761450000 39.4603100000  8.8942150000
119       5   5  0.14999999999999999445 44.2571280000 43.1748890000 11.7824330000
120       5   5  0.14999999999999999445 39.7189250000 41.9555970000  6.9575190000
121       6   1 -0.11999999999999999556  1.4781870000  8.3680710000 21.5625870000
122       6   1 -0.11999999999999999556  3.2844100000  7.1916400000 22.0223390000
123       6   1 -0.11999999999999999556  1.9085820000  7.6817750000 24.2029320000
124       6   1 -0.11999999999999999556  0.0004610000  7.0564830000 23.2964680000
125       6   1 -0.11999999999999999556  2.2180130000  4.9756230000 20.9774370000
126       6   1 -0.11999999999999999556  0.2213640000  5.9011990000 20.8359390000
127       6   1 -0.11999999999999999556  3.2003190000  6.9366700000 19.2479300000
128       6   1 -0.11999999999999999556  1.5262420000  5.7237750000 18.4658610000
129       6   1 -0.23260000000000000120  2.7461980000  3.5245580000 25.5181690000
130       6   1 -0.23260000000000000120  2.7263660000  2.8922700000 23.4266610000
131       6   1 -0.11999999999999999556  5.3025900000  4.5770400000 25.1803050000
132       6   1 -0.11999999999999999556  5.1293570000  2.4484920000 24.6111720000
133       6   2 -0.36299999999999998934  2.9042800000  5.0879580000 23.9022660000
134       6   3  0.23999999999999999112  1.9368340000  7.1326240000 21.9246740000
135       6   3  0.23999999999999999112  1.3419280000  6.8007630000 23.3325180000
136       6   3  0.23999999999999999112  1.5633150000  6.1482190000 20.7790300000
137       6   3  0.12149999999999999689  1.5042640000  5.3770800000 23.8510390000
138       6   3  0.08999999999999999667  1.8681850000  6.6881960000 19.3621410000
139       6   4  0.64670000000000005258  3.2420240000  3.8318470000 24.2832320000
140       6   3  0.08999999999999999667  4.7799740000  3.7166140000 24.2659590000
141       6   5  0.02999999999999999889  1.0629930000  5.3483400000 24.8512120000
142       6   5  0.02999999999999999889  0.9831380000  4.6808250000 23.1898620000
143       6   5  0.14999999999999999445  1.3048450000  7.5989220000 19.1467430000
144       6   5  0.14999999999999999445  5.1782090000  3.9492790000 23.2745640000
145       7   1 -0.11999999999999999556 52.9622330000  5.7383750000 45.2503340000
146       7   1 -0.11999999999999999556 54.3236770000  4.2400080000 46.1216390000
147       7   1 -0.11999999999999999556 53.1712960000  5.6612910000 48.0031530000
148       7   1 -0.11999999999999999556 51.1602210000  5.4177940000 47.1371990000
149       7   1 -0.11999999999999999556 52.6269740000  2.2486030000 45.5782630000
150       7   1 -0.11999999999999999556 51.0086150000  3.6548800000 45.0619080000
151       7   1 -0.11999999999999999556 54.1559650000  3.3143310000 43.4978210000
152       7   1 -0.11999999999999999556 52.1884290000  2.4932620000 42.9147850000
153       7   1 -0.23260000000000000120 52.7018560000  1.9298410000 50.3631980000
154       7   1 -0.23260000000000000120 52.4823000000  0.8144360000 48.4971180000
155       7   1 -0.11999999999999999556 55.4564540000  2.0528530000 49.9706770000
156       7   1 -0.11999999999999999556 54.6385190000  0.0000000000 49.9330090000
157       7   2 -0.36299999999999998934 53.3249010000  2.9034970000 48.4282130000
158       7   3  0.23999999999999999112 53.0222960000  4.5598790000 45.9397780000
159       7   3  0.23999999999999999112 52.3593080000  4.7944170000 47.3367420000
160       7   3  0.23999999999999999112 52.3616030000  3.4696530000 45.0476110000
161       7   3  0.12149999999999999689 52.0802340000  3.5710210000 48.2013290000
162       7   3  0.08999999999999999667 52.8120770000  3.5101020000 43.5685800000
163       7   4  0.64670000000000005258 53.2636010000  1.7467020000 49.1318390000
164       7   3  0.08999999999999999667 54.6925360000  1.1805170000 49.2600790000
165       7   5  0.02999999999999999889 51.6548080000  3.9335310000 49.1412710000
166       7   5  0.02999999999999999889 51.3688280000  2.9145550000 47.6949170000
167       7   5  0.14999999999999999445 52.5535340000  4.4588940000 43.0930590000
168       7   5  0.14999999999999999445 55.1393910000  1.0205440000 48.2750330000
169       8   1 -0.11999999999999999556 39.5839390000 28.7640530000 31.8159540000
170       8   1 -0.11999999999999999556 41.7461880000 29.0290550000 32.1509970000
171       8   1 -0.11999999999999999556 40.6388200000 27.7541380000 34.1600880000
172       8   1 -0.11999999999999999556 39.5684380000 26.3459080000 32.8467860000
173       8   1 -0.11999999999999999556 42.3484350000 27.1518930000 30.3473020000
174       8   1 -0.11999999999999999556 40.2492790000 26.4900970000 30.2098660000
175       8   1 -0.11999999999999999556 41.5645090000 29.6767660000 29.4460220000
176       8   1 -0.11999999999999999556 41.0741970000 27.9886340000 28.1062140000
177       8   1 -0.23260000000000000120 44.1898440000 25.0909270000 34.2670530000
178       8   1 -0.23260000000000000120 44.3811380000 25.3111650000 32.1015300000
179       8   1 -0.11999999999999999556 45.3159490000 27.6126440000 34.6273890000
180       8   1 -0.11999999999999999556 46.5628530000 26.2398650000 33.4251630000
181       8   2 -0.36299999999999998934 43.0826030000 26.7619170000 33.2364400000
182       8   3  0.23999999999999999112 40.7896600000 28.1215200000 31.8503030000
183       8   3  0.23999999999999999112 40.7259830000 27.0563480000 32.9937300000
184       8   3  0.23999999999999999112 41.0588140000 27.5696000000 30.4206140000
185       8   3  0.12149999999999999689 41.8581270000 26.0397790000 33.0769520000
186       8   3  0.08999999999999999667 40.7691640000 28.5847360000 29.2902620000
187       8   4  0.64670000000000005258 44.2157650000 26.0188590000 33.2652490000
188       8   3  0.08999999999999999667 45.4168480000 26.9719830000 33.4320390000
189       8   5  0.02999999999999999889 41.6598300000 25.4103860000 33.9489800000
190       8   5  0.02999999999999999889 41.8761840000 25.4310140000 32.1699910000
191       8   5  0.14999999999999999445 39.7209640000 28.8919370000 29.2816280000
192       8   5  0.14999999999999999445 45.4472400000 27.7075780000 32.6236050000
193       9   1 -0.11999999999999999556 22.4625930000 51.2719800000 19.0601580000
194       9   1 -0.11999999999999999556 23.5162670000 49.5168450000 18.2434120000
195       9   1 -0.11999999999999999556 24.5359430000 51.7424510000 17.2973360000
196       9   1 -0.11999999999999999556 24.6709690000 52.6798670000 19.2864590000
197       9   1 -0.11999999999999999556 24.7691270000 49.0758550000 20.5619510000
198       9   1 -0.11999999999999999556 24.1217000000 51.0192420000 21.3789000000
199       9   1 -0.11999999999999999556 22.0870480000 48.3333330000 20.3233290000
200       9   1 -0.11999999999999999556 22.7456740000 48.8973340000 22.3564040000
201       9   1 -0.23260000000000000120 28.5706840000 49.9508830000 17.7717350000
202       9   1 -0.23260000000000000120 27.8420360000 48.8481910000 19.5117720000
203       9   1 -0.11999999999999999556 27.2995200000 48.1362870000 16.0840160000
204       9   1 -0.11999999999999999556 28.6840760000 47.1963270000 17.5276650000
205       9   2 -0.36299999999999998934 26.3479390000 49.7721900000 18.1001070000
206       9   3  0.23999999999999999112 23.6259250000 50.5559490000 19.1020260000
207       9   3  0.23999999999999999112 24.7776300000 51.4951600000 18.6146570000
208       9   3  0.23999999999999999112 23.7704540000 49.9953030000 20.5462750000
209       9   3  0.12149999999999999689 26.2107530000 51.0117960000 18.8006910000
210       9   3  0.08999999999999999667 22.4724770000 49.3724320000 21.1114160000
211       9   4  0.64670000000000005258 27.5497760000 49.1547490000 18.2067720000
212       9   3  0.08999999999999999667 27.4948000000 47.8429000000 17.3975150000
213       9   5  0.02999999999999999889 26.8647160000 51.7765370000 18.3724450000
214       9   5  0.02999999999999999889 26.4240860000 50.8874480000 19.8648930000
215       9   5  0.14999999999999999445 21.6654650000 50.1060120000 21.1727500000
216       9   5  0.14999999999999999445 26.6864460000 47.1980450000 17.7529210000
217      10   1 -0.11999999999999999556 49.2790570000 26.1579790000 51.8067930000
218      10   1 -0.11999999999999999556 47.6781850000 27.6681540000 51.6868550000
219      10   1 -0.11999999999999999556 47.0067400000 25.7221750000 53.3148760000
220      10   1 -0.11999999999999999556 48.9319620000 25.7769340000 54.3845070000
221      10   1 -0.11999999999999999556 49.0752690000 29.3994180000 53.1669340000
222      10   1 -0.11999999999999999556 50.5578050000 27.8625780000 53.7178710000
223      10   1 -0.11999999999999999556 49.7784060000 29.0525570000 50.4860550000
224      10   1 -0.11999999999999999556 51.4301320000 29.6157120000 51.8424980000
225      10   1 -0.23260000000000000120 45.2984120000 28.7695860000 56.0550960000
226      10   1 -0.23260000000000000120 46.8341930000 30.1773800000 55.3962460000
227      10   1 -0.11999999999999999556 43.8774650000 29.2111110000 53.7007430000
228      10   1 -0.11999999999999999556 44.3267520000 31.0550200000 54.8333430000
229      10   2 -0.36299999999999998934 46.4538080000 28.3240380000 54.1717740000
230      10   3  0.23999999999999999112 48.6520010000 27.1680100000 52.4809090000
231      10   3  0.23999999999999999112 47.9948050000 26.5483360000 53.7576890000
232      10   3  0.23999999999999999112 49.7100250000 28.2808750000 52.7322820000
233      10   3  0.12149999999999999689 47.4428640000 27.5075150000 54.8052710000
234      10   3  0.08999999999999999667 50.5771100000 28.6144720000 51.4957670000
235      10   4  0.64670000000000005258 45.8930160000 29.2890820000 54.9406850000
236      10   3  0.08999999999999999667 44.8693750000 30.0597290000 54.0821240000
237      10   5  0.02999999999999999889 46.9970650000 26.8967880000 55.5953130000
238      10   5  0.02999999999999999889 48.2531220000 28.1166050000 55.2126890000
239      10   5  0.14999999999999999445 51.1522950000 27.7487180000 51.1599040000
240      10   5  0.14999999999999999445 45.3460070000 30.4878540000 53.1960550000
241      11   1 -0.11999999999999999556 51.2877880000 30.9472850000 27.7339110000
242      11   1 -0.11999999999999999556 50.3512660000 30.0423920000 29.5120830000
243      11   1 -0.11999999999999999556 52.7896690000 30.8506780000 30.0496580000
244      11   1 -0.11999999999999999556 52.4763410000 32.8291490000 29.1325580000
245      11   1 -0.11999999999999999556 48.7842720000 32.1744340000 29.8844820000
246      11   1 -0.11999999999999999556 49.9036170000 33.3621700000 28.4013530000
247      11   1 -0.11999999999999999556 48.1240210000 30.3596620000 27.8664380000
248      11   1 -0.11999999999999999556 47.5105920000 32.4526650000 27.5082200000
249      11   1 -0.23260000000000000120 51.3037700000 32.3325550000 33.9624640000
250      11   1 -0.23260000000000000120 49.3775890000 32.7720460000 33.0290500000
251      11   1 -0.11999999999999999556 50.6474960000 29.6273600000 34.0532210000
252      11   1 -0.11999999999999999556 49.1588710000 30.9417940000 35.0232190000
253      11   2 -0.36299999999999998934 50.8280880000 31.4211980000 31.9565950000
254      11   3  0.23999999999999999112 50.7462390000 31.2122780000 28.9604090000
255      11   3  0.23999999999999999112 51.8712660000 31.8363150000 29.8497690000
256      11   3  0.23999999999999999112 49.4910310000 32.1018620000 28.7276750000
257      11   3  0.12149999999999999689 51.4608270000 32.4459230000 31.1846880000
258      11   3  0.08999999999999999667 48.5760790000 31.6102350000 27.5817000000
259      11   4  0.64670000000000005258 50.3350770000 31.7983410000 33.1614710000
260      11   3  0.08999999999999999667 49.6898900000 30.5665730000 33.8288150000
261      11   5  0.02999999999999999889 52.3756560000 32.7934570000 31.6727430000
262      11   5  0.02999999999999999889 50.7827110000 33.2855130000 31.0151410000
263      11   5  0.14999999999999999445 49.0984390000 31.6024520000 26.6224040000
264      11   5  0.14999999999999999445 48.9048030000 30.1451030000 33.1951040000
265      12   1 -0.11999999999999999556 53.5598210000 32.8832370000  3.1901300000
266      12   1 -0.11999999999999999556 53.5846020000 30.7170590000  3.5961590000
267      12   1 -0.11999999999999999556 54.0016080000 31.1950540000  1.0494460000
268      12   1 -0.11999999999999999556 55.5273740000 32.7320760000  1.4534190000
269      12   1 -0.11999999999999999556 55.9835510000 30.8706590000  4.7628660000
270      12   1 -0.11999999999999999556 56.2845640000 32.9408760000  4.0650740000
271      12   1 -0.11999999999999999556 53.7398600000 31.7255270000  6.1900590000
272      12   1 -0.11999999999999999556 55.6364820000 32.7441940000  6.6904810000
273      12   1 -0.23260000000000000120 57.0855820000 28.0009990000  1.0813720000
274      12   1 -0.23260000000000000120 57.5483220000 28.5119990000  3.1548560000
275      12   1 -0.11999999999999999556 54.8028410000 26.6439090000  1.9206670000
276      12   1 -0.11999999999999999556 56.6617660000 25.9579280000  2.8996830000
277      12   2 -0.36299999999999998934 55.6269950000 29.2631140000  2.2475380000
278      12   3  0.23999999999999999112 54.3614700000 31.7808870000  3.2900100000
279      12   3  0.23999999999999999112 55.0156400000 31.5428730000  1.8894810000
280      12   3  0.23999999999999999112 55.3471550000 32.0328210000  4.4673050000
281      12   3  0.12149999999999999689 56.1418860000 30.5203270000  1.7996940000
282      12   3  0.08999999999999999667 54.6753190000 32.6031420000  5.7383140000
283      12   4  0.64670000000000005258 56.5122820000 28.2380630000  2.2981170000
284      12   3  0.08999999999999999667 55.7740580000 26.9842100000  2.8097250000
285      12   5  0.02999999999999999889 56.4429930000 30.4670280000  0.7497490000
286      12   5  0.02999999999999999889 56.9840360000 30.8423280000  2.4166190000
287      12   5  0.14999999999999999445 54.2084960000 33.5722930000  5.5485960000
288      12   5  0.14999999999999999445 55.3254840000 27.1675190000  3.7899130000
289      13   1 -0.11999999999999999556 43.7792190000 14.4083720000 41.5271740000
290      13   1 -0.11999999999999999556 43.0904120000 12.6564680000 42.6735490000
291      13   1 -0.11999999999999999556 45.3259250000 12.1234890000 41.4060580000
292      13   1 -0.11999999999999999556 46.3089630000 13.9716280000 42.0927960000
293      13   1 -0.11999999999999999556 43.8205580000 13.7706650000 44.9898410000
294      13   1 -0.11999999999999999556 44.9180380000 15.3855470000 43.9646510000
295      13   1 -0.11999999999999999556 41.4709720000 14.6478960000 43.7603120000
296      13   1 -0.11999999999999999556 42.5270410000 16.1524920000 44.9875800000
297      13   1 -0.23260000000000000120 46.7094420000  9.9422970000 45.0174550000
298      13   1 -0.23260000000000000120 45.5798250000 11.3425990000 46.2574980000
299      13   1 -0.11999999999999999556 44.3526130000  8.6061360000 44.3716650000
300      13   1 -0.11999999999999999556 44.7123360000  8.7854110000 46.5449340000
301      13   2 -0.36299999999999998934 45.1389480000 11.2375720000 44.0498990000
302      13   3  0.23999999999999999112 44.0204350000 13.6373340000 42.6294930000
303      13   3  0.23999999999999999112 45.4322420000 12.9878940000 42.4531490000
304      13   3  0.23999999999999999112 43.8420750000 14.5489820000 43.8777540000
305      13   3  0.12149999999999999689 46.0391430000 12.2775240000 43.6569500000
306      13   3  0.08999999999999999667 42.5764090000 15.4367220000 43.8319040000
307      13   4  0.64670000000000005258 45.4853400000 10.5323710000 45.1543100000
308      13   3  0.08999999999999999667 44.3935870000  9.4750540000 45.4170320000
309      13   5  0.02999999999999999889 46.9978790000 11.8623630000 43.3339040000
310      13   5  0.02999999999999999889 46.1930710000 12.9917390000 44.4691710000
311      13   5  0.14999999999999999445 42.5941200000 16.1223470000 42.9817430000
312      13   5  0.14999999999999999445 43.4146640000  9.9463610000 45.5401900000
313      14   1 -0.11999999999999999556 44.3676540000  1.7043340000 54.5026890000
314      14   1 -0.11999999999999999556 46.0619420000  1.5100970000 53.1064580000
315      14   1 -0.11999999999999999556 44.0521630000 -0.0000240000 52.3525050000
316      14   1 -0.11999999999999999556 42.5784310000  1.6218860000 52.5785890000
317      14   1 -0.11999999999999999556 45.5896100000  3.9204630000 52.0544170000