Generated by pymatgen.io.lammps.data.LammpsData

16754  atoms
16021  bonds
28134  angles
28289  dihedrals

   17  atom types
   16  bond types
   24  angle types
   21  dihedral types

-0.2500000000 60.2500000000  xlo xhi
-0.2500000000 60.2500000000  ylo yhi
-0.2500000000 60.2500000000  zlo zhi

Masses

1   32.06500
2   15.99940
3   15.99940
4   12.01070
5    1.00794
6   14.01000
7   32.06000
8   16.00000
9   12.01000
10  19.00000
11  16.00000
12  12.01000
13  12.01000
14   1.00800
15  32.06000
16  32.06000
17   6.94100

Pair Coeffs

1     0.3950  3.560000
2     0.1400  2.900000
3     0.2800  2.700000
4     0.0660  3.500000
5     0.0300  2.500000
6       0.17  3.249999
7       0.25  3.549340
8       0.21  2.959566
9      0.066  3.499450
10     0.053  2.948875
11      0.14  2.900000
12     0.066  3.500000
13     0.066  3.500000
14      0.03  2.500000
15  0.344001  3.590322
16  0.344001  3.590322
17  0.165057  1.506000

Bond Coeffs

1   295.00  1.710
2   700.00  1.530
3   320.00  1.410
4   268.00  1.529
5   340.00  1.090
6   441.80  1.323
7   235.40  1.818
8   637.10  1.442
9   372.00  1.570
10  320.00  1.410
11  320.00  1.380
12  268.00  1.529
13  340.00  1.090
14  340.00  1.090
15  157.87  2.133
16  154.36  2.117


Angle Coeffs

1   130.00  109.000
2   130.00  108.940
3   100.00  113.633
4    50.00  109.500
5    35.00  109.500
6    37.50  110.700
7    33.00  107.800
8    93.30  107.100
9    82.90  111.800
10  104.00  102.600
11  115.80  118.500
12   94.30  113.600
13   97.50  100.200
14   80.20  125.600
15   60.00  109.500
16   50.00  109.500
17   35.00  109.500
18   37.50  110.700
19   33.00  107.800
20   92.60  111.550
21   35.00  109.500
22   33.00  109.500
23   73.56  112.740
24   73.56  112.740


Dihedral Coeffs

1 1 0.000000000 1 0.000000000
2 1 0.000000000 1 0.000000000
3 1 0.375000000 3 0.000000000
4 1 0.375000000 3 0.000000000
5 1 0.234000000 3 0.000000000
6 1 0.150000000 3 0.000000000
7 1 0.173400000 3 0.000000000
8 1 0.158000000 3 0.000000000
9 1 -0.001800000 3 0.000000000
10 3 3.916460000 1 0.000000000 -1.245000000 2 180.000000000 -0.381800000 3 0.000000000
11 3 0.062500000 1 0.000000000 -0.011000000 2 180.000000000 0.280500000 3 0.000000000
12 3 0.062500000 1 0.000000000 -0.011000000 2 180.000000000 0.280500000 3 0.000000000
13 1 0.370500000 3 0.000000000
14 1 0.370500000 3 0.000000000
15 3 -0.533500000 1 0.000000000 -0.783500000 2 180.000000000 0.337500000 3 0.000000000
16 1 0.370500000 3 0.000000000
17 3 1.119000000 1 0.000000000 -1.163500000 2 180.000000000 -0.341500000 3 0.000000000
18 1 0.234000000 3 0.000000000
19 1 0.150000000 3 0.000000000
20 4 5.431700000 1 0.000000000 -3.590000000 2 180.000000000 1.055600000 3 0.000000000 0.058320000 4 180.000000000
21 4 5.431700000 1 0.000000000 -3.590000000 2 180.000000000 1.055600000 3 0.000000000 0.058320000 4 180.000000000


Atoms

1         1   1  0.89000000000000001332  1.9324940000 55.2412140000 47.6137990000
2         1   2 -0.43750000000000000000  3.0071180000 56.4356540000 48.0262110000
3         1   2 -0.43750000000000000000  3.0533070000 53.9989620000 47.8644320000
4         1   3 -0.46000000000000001998  0.9547050000 55.2074620000 48.7124470000
5         1   4  0.10249999999999999389  4.1128800000 56.6553380000 47.1084620000
6         1   4  0.10249999999999999389  2.4987420000 52.6616130000 47.8090390000
7         1   4 -0.17999999999999999334  4.7764510000 57.9568330000 47.5207770000
8         1   4 -0.17999999999999999334  3.6545760000 51.6929780000 47.9932920000
9         1   5  0.05999999999999999778  4.7996520000 55.8055610000 47.1848290000
10        1   5  0.05999999999999999778  3.7320000000 56.7128870000 46.0795850000
11        1   5  0.05999999999999999778  1.7546320000 52.5510740000 48.6059410000
12        1   5  0.05999999999999999778  2.0042520000 52.5048050000 46.8389190000
13        1   5  0.05999999999999999778  5.1337100000 57.8929880000 48.5542820000
14        1   5  0.05999999999999999778  5.6325030000 58.1597630000 46.8664190000
15        1   5  0.05999999999999999778  4.0716320000 58.7915160000 47.4478030000
16        1   5  0.05999999999999999778  4.1462900000 51.8660790000 48.9562800000
17        1   5  0.05999999999999999778  3.2834640000 50.6621150000 47.9696030000
18        1   5  0.05999999999999999778  4.3956970000 51.8160500000 47.1964570000
19        2   1  0.89000000000000001332 42.1470640000 29.6031080000 16.9019860000
20        2   2 -0.43750000000000000000 42.4938620000 28.3144360000 15.9167740000
21        2   2 -0.43750000000000000000 41.0046500000 30.2486500000 15.8340940000
22        2   3 -0.46000000000000001998 41.4299410000 29.0273330000 18.0502270000
23        2   4  0.10249999999999999389 43.1831640000 28.6184200000 14.6735160000
24        2   4  0.10249999999999999389 40.2342870000 31.3544210000 16.3660010000
25        2   4 -0.17999999999999999334 43.6513650000 27.2958850000 14.0939380000
26        2   4 -0.17999999999999999334 39.3169100000 31.8330130000 15.2535590000
27        2   5  0.05999999999999999778 42.4821900000 29.1307250000 14.0058430000
28        2   5  0.05999999999999999778 44.0322930000 29.2853270000 14.8764530000
29        2   5  0.05999999999999999778 39.6618020000 31.0055370000 17.2328990000
30        2   5  0.05999999999999999778 40.9127660000 32.1575280000 16.6899230000
31        2   5  0.05999999999999999778 42.7975790000 26.6334000000 13.9150370000
32        2   5  0.05999999999999999778 44.1649360000 27.4700910000 13.1410020000
33        2   5  0.05999999999999999778 44.3421200000 26.7947930000 14.7799090000
34        2   5  0.05999999999999999778 38.6547920000 31.0225770000 14.9312430000
35        2   5  0.05999999999999999778 38.7020000000 32.6666460000 15.6111990000
36        2   5  0.05999999999999999778 39.8979620000 32.1727570000 14.3896690000
37        3   1  0.89000000000000001332 45.6294920000 45.3499400000 20.8956820000
38        3   2 -0.43750000000000000000 47.1490340000 44.6866670000 20.8442060000
39        3   2 -0.43750000000000000000 45.5069750000 45.2041080000 22.5767390000
40        3   3 -0.46000000000000001998 45.8192770000 46.7718910000 20.5696870000
41        3   4  0.10249999999999999389 47.2483790000 43.2727160000 21.1668630000
42        3   4  0.10249999999999999389 44.3553840000 45.8618410000 23.1601250000
43        3   4 -0.17999999999999999334 48.6447790000 42.8272210000 20.7721170000
44        3   4 -0.17999999999999999334 44.3846280000 45.5702560000 24.6508570000
45        3   5  0.05999999999999999778 47.0694660000 43.1496320000 22.2403850000
46        3   5  0.05999999999999999778 46.4821530000 42.7135190000 20.6126400000
47        3   5  0.05999999999999999778 44.4214870000 46.9377620000 22.9626560000
48        3   5  0.05999999999999999778 43.4341490000 45.4737110000 22.7008620000
49        3   5  0.05999999999999999778 49.3987510000 43.4058170000 21.3167230000
50        3   5  0.05999999999999999778 48.7769220000 41.7657360000 21.0129010000
51        3   5  0.05999999999999999778 48.8076360000 42.9678310000 19.6985730000
52        3   5  0.05999999999999999778 45.3106980000 45.9502440000 25.0948120000
53        3   5  0.05999999999999999778 43.5348130000 46.0576400000 25.1420150000
54        3   5  0.05999999999999999778 44.3252220000 44.4927530000 24.8374340000
55        4   1  0.89000000000000001332 33.9784650000 14.0084060000 34.5164610000
56        4   2 -0.43750000000000000000 32.6965810000 14.9203390000 33.9904000000
57        4   2 -0.43750000000000000000 32.9925440000 12.8940720000 35.3217240000
58        4   3 -0.46000000000000001998 34.5120380000 13.3615590000 33.3076910000
59        4   4  0.10249999999999999389 31.9596320000 15.6484440000 35.0102060000
60        4   4  0.10249999999999999389 33.6832440000 11.7213830000 35.8185610000
61        4   4 -0.17999999999999999334 31.0479920000 16.6218720000 34.2852420000
62        4   4 -0.17999999999999999334 32.6559460000 10.8794440000 36.5560930000
63        4   5  0.05999999999999999778 31.3925440000 14.9271140000 35.6082880000
64        4   5  0.05999999999999999778 32.6638860000 16.1781170000 35.6662850000
65        4   5  0.05999999999999999778 34.1127240000 11.1750300000 34.9712020000
66        4   5  0.05999999999999999778 34.4977930000 12.0277650000 36.4915260000
67        4   5  0.05999999999999999778 30.3648540000 16.0826630000 33.6200960000
68        4   5  0.05999999999999999778 30.4542060000 17.1862380000 35.0140050000
69        4   5  0.05999999999999999778 31.6324570000 17.3270830000 33.6853510000
70        4   5  0.05999999999999999778 31.8445600000 10.5904850000 35.8798920000
71        4   5  0.05999999999999999778 33.1293050000  9.9703890000 36.9440530000
72        4   5  0.05999999999999999778 32.2277690000 11.4363880000 37.3962310000
73        5   1  0.89000000000000001332 46.2675500000 36.6357870000 27.2666980000
74        5   2 -0.43750000000000000000 45.6159700000 38.1346170000 26.9829030000
75        5   2 -0.43750000000000000000 47.1833910000 36.6471860000 25.8442580000
76        5   3 -0.46000000000000001998 47.1816170000 36.8228700000 28.4041150000
77        5   4  0.10249999999999999389 44.6879840000 38.2355410000 25.8685020000
78        5   4  0.10249999999999999389 48.1312460000 35.5579810000 25.7245990000
79        5   4 -0.17999999999999999334 44.0073950000 39.5876060000 25.9822540000
80        5   4 -0.17999999999999999334 48.8063930000 35.7027330000 24.3713140000
81        5   5  0.05999999999999999778 45.2554930000 38.1419790000 24.9364130000
82        5   5  0.05999999999999999778 43.9566140000 37.4175400000 25.9227120000
83        5   5  0.05999999999999999778 48.8577080000 35.6262850000 26.5422530000
84        5   5  0.05999999999999999778 47.6027340000 34.5961100000 25.8002310000
85        5   5  0.05999999999999999778 44.7490240000 40.3929490000 25.9468450000
86        5   5  0.05999999999999999778 43.3062320000 39.7206200000 25.1498680000
87        5   5  0.05999999999999999778 43.4547450000 39.6654660000 26.9242240000
88        5   5  0.05999999999999999778 49.3188410000 36.6680450000 24.3030410000
89        5   5  0.05999999999999999778 49.5443750000 34.9038970000 24.2363790000
90        5   5  0.05999999999999999778 48.0716260000 35.6401940000 23.5616470000
91        6   1  0.89000000000000001332 24.8811640000 40.0150190000  5.7266940000
92        6   2 -0.43750000000000000000 23.2405030000 39.8668080000  5.9212460000
93        6   2 -0.43750000000000000000 25.1413580000 38.3434130000  5.7429490000
94        6   3 -0.46000000000000001998 25.0631350000 40.4957390000  4.3482780000
95        6   4  0.10249999999999999389 22.7846900000 39.3678200000  7.2082890000
96        6   4  0.10249999999999999389 26.4878840000 37.9359320000  5.3966210000
97        6   4 -0.17999999999999999334 21.2848950000 39.5953650000  7.2635980000
98        6   4 -0.17999999999999999334 26.5416310000 36.4230960000  5.5254420000
99        6   5  0.05999999999999999778 23.0384560000 38.3045400000  7.2764650000
100       6   5  0.05999999999999999778 23.2978430000 39.9079590000  8.0156870000
101       6   5  0.05999999999999999778 26.7048670000 38.2570330000  4.3715440000
102       6   5  0.05999999999999999778 27.2072250000 38.4149990000  6.0772700000
103       6   5  0.05999999999999999778 20.7878140000 39.0680570000  6.4421970000
104       6   5  0.05999999999999999778 20.8876570000 39.2177030000  8.2132090000
105       6   5  0.05999999999999999778 21.0513530000 40.6620510000  7.1834040000
106       6   5  0.05999999999999999778 25.8137170000 35.9578080000  4.8525800000
107       6   5  0.05999999999999999778 27.5425080000 36.0626270000  5.2622470000
108       6   5  0.05999999999999999778 26.3166240000 36.1120580000  6.5511030000
109       7   1  0.89000000000000001332 54.2866610000 12.6286850000 50.1974800000
110       7   2 -0.43750000000000000000 54.8226490000 12.2289680000 48.6794110000
111       7   2 -0.43750000000000000000 55.0410600000 11.3027320000 50.9288910000
112       7   3 -0.46000000000000001998 55.0340410000 13.8422460000 50.5620740000
113       7   4  0.10249999999999999389 54.2569240000 11.0265670000 48.0899860000
114       7   4  0.10249999999999999389 55.0185120000 11.3152800000 52.3774930000
115       7   4 -0.17999999999999999334 54.6538690000 11.0247090000 46.6248400000
116       7   4 -0.17999999999999999334 55.6807450000 10.0298600000 52.8436460000
117       7   5  0.05999999999999999778 54.6593800000 10.1581660000 48.6224500000
118       7   5  0.05999999999999999778 53.1643970000 11.0387130000 48.2049010000
119       7   5  0.05999999999999999778 55.5627770000 12.1968120000 52.7347720000
120       7   5  0.05999999999999999778 53.9787150000 11.3736720000 52.7319690000
121       7   5  0.05999999999999999778 55.7445980000 11.0327180000 46.5244010000
122       7   5  0.05999999999999999778 54.2640050000 10.1237370000 46.1365330000
123       7   5  0.05999999999999999778 54.2514100000 11.9049510000 46.1129870000
124       7   5  0.05999999999999999778 56.7106000000  9.9770970000 52.4752610000
125       7   5  0.05999999999999999778 55.6981870000  9.9963110000 53.9388790000
126       7   5  0.05999999999999999778 55.1338120000  9.1552550000 52.4758370000
127       8   1  0.89000000000000001332 25.3609920000 26.4195970000 31.3478330000
128       8   2 -0.43750000000000000000 24.8222740000 25.6837010000 29.9622550000
129       8   2 -0.43750000000000000000 23.9851680000 25.9941590000 32.2357200000
130       8   3 -0.46000000000000001998 26.4834100000 25.5898670000 31.8125510000
131       8   4  0.10249999999999999389 23.6764730000 26.2951490000 29.3091810000
132       8   4  0.10249999999999999389 24.0704310000 26.2701020000 33.6554730000
133       8   4 -0.17999999999999999334 23.5523860000 25.6498640000 27.9408130000
134       8   4 -0.17999999999999999334 22.7339150000 25.8821620000 34.2648850000
135       8   5  0.05999999999999999778 22.7898850000 26.1152620000 29.9266040000
136       8   5  0.05999999999999999778 23.8359010000 27.3787740000 29.2237010000
137       8   5  0.05999999999999999778 24.8900400000 25.6823680000 34.0841690000
138       8   5  0.05999999999999999778 24.2803740000 27.3383000000 33.8139590000
139       8   5  0.05999999999999999778 23.4138510000 24.5677970000 28.0397100000
140       8   5  0.05999999999999999778 22.6871540000 26.0666140000 27.4117740000
141       8   5  0.05999999999999999778 24.4516960000 25.8317760000 27.3433660000
142       8   5  0.05999999999999999778 22.5301660000 24.8204330000 34.0907860000
143       8   5  0.05999999999999999778 22.7512810000 26.0630420000 35.3456000000
144       8   5  0.05999999999999999778 21.9210050000 26.4696950000 33.8251850000
145       9   1  0.89000000000000001332 37.2048790000 43.3942380000 46.0401590000
146       9   2 -0.43750000000000000000 36.4307020000 42.0871530000 46.7063160000
147       9   2 -0.43750000000000000000 38.6723620000 43.0516010000 46.8091330000
148       9   3 -0.46000000000000001998 37.3469580000 43.0703940000 44.6121610000
149       9   4  0.10249999999999999389 36.1933360000 42.1379320000 48.1396040000
150       9   4  0.10249999999999999389 39.7910950000 43.8598850000 46.3684200000
151       9   4 -0.17999999999999999334 35.2331630000 41.0090180000 48.4679960000
152       9   4 -0.17999999999999999334 40.9910370000 43.4532060000 47.2068160000
153       9   5  0.05999999999999999778 37.1532440000 42.0190950000 48.6534740000
154       9   5  0.05999999999999999778 35.7651700000 43.1134590000 48.4079120000
155       9   5  0.05999999999999999778 39.9673330000 43.6738130000 45.3029210000
156       9   5  0.05999999999999999778 39.5564600000 44.9256510000 46.5074550000
157       9   5  0.05999999999999999778 35.6636070000 40.0445570000 48.1775200000
158       9   5  0.05999999999999999778 35.0347630000 40.9932660000 49.5462250000
159       9   5  0.05999999999999999778 34.2845690000 41.1400660000 47.9371580000
160       9   5  0.05999999999999999778 41.2078150000 42.3886400000 47.0697020000
161       9   5  0.05999999999999999778 41.8706060000 44.0319270000 46.9028340000
162       9   5  0.05999999999999999778 40.8024760000 43.6363540000 48.2699500000
163      10   1  0.89000000000000001332 56.1011630000  6.6350110000 55.1990690000
164      10   2 -0.43750000000000000000 55.0766270000  6.7925250000 56.4941000000
165      10   2 -0.43750000000000000000 54.8849250000  6.0652920000 54.1702760000
166      10   3 -0.46000000000000001998 56.4327970000  8.0119830000 54.8013220000
167      10   4  0.10249999999999999389 54.5645620000  5.5585080000 57.0670080000
168      10   4  0.10249999999999999389 55.2715050000  5.9525520000 52.7785290000
169      10   4 -0.17999999999999999334 53.9099080000  5.9233540000 58.3870600000
170      10   4 -0.17999999999999999334 54.0817000000  5.3734830000 52.0320710000
171      10   5  0.05999999999999999778 53.8476510000  5.1220020000 56.3633670000
172      10   5  0.05999999999999999778 55.3913820000  4.8507200000 57.2165870000
173      10   5  0.05999999999999999778 55.5345280000  6.9468040000 52.4000440000
174      10   5  0.05999999999999999778 56.1498460000  5.2961960000 52.6893420000
175      10   5  0.05999999999999999778 53.1009810000  6.6441700000 58.2261180000
176      10   5  0.05999999999999999778 53.4899270000  5.0242290000 58.8533000000
177      10   5  0.05999999999999999778 54.6395960000  6.3672970000 59.0720870000
178      10   5  0.05999999999999999778 53.2106950000  6.0286900000 52.1376550000
179      10   5  0.05999999999999999778 54.3213320000  5.2780050000 50.9669780000
180      10   5  0.05999999999999999778 53.8224330000  4.3835310000 52.4221070000
181      11   1  0.89000000000000001332 39.8507440000 14.6535300000 26.2355750000
182      11   2 -0.43750000000000000000 38.9043070000 14.4991900000 24.8820520000
183      11   2 -0.43750000000000000000 40.9438950000 13.4624350000 25.7370340000
184      11   3 -0.46000000000000001998 40.5048450000 15.9642670000 26.1000830000
185      11   4  0.10249999999999999389 38.1629350000 13.2557310000 24.7500940000
186      11   4  0.10249999999999999389 42.1360020000 13.3536070000 26.5532160000
187      11   4 -0.17999999999999999334 37.1633500000 13.4553560000 23.6252820000
188      11   4 -0.17999999999999999334 42.9554730000 12.2038290000 25.9922940000
189      11   5  0.05999999999999999778 38.8727180000 12.4520160000 24.5268040000
190      11   5  0.05999999999999999778 37.6543620000 13.0276430000 25.6968240000
191      11   5  0.05999999999999999778 42.6888020000 14.2985960000 26.5044380000
192      11   5  0.05999999999999999778 41.8535010000 13.1624730000 27.5991140000
193      11   5  0.05999999999999999778 37.6819420000 13.7015380000 22.6923840000
194      11   5  0.05999999999999999778 36.5878300000 12.5345520000 23.4733500000
195      11   5  0.05999999999999999778 36.4701080000 14.2689520000 23.8624940000
196      11   5  0.05999999999999999778 43.2206210000 12.3994650000 24.9480160000
197      11   5  0.05999999999999999778 43.8780350000 12.0869090000 26.5720990000
198      11   5  0.05999999999999999778 42.3920830000 11.2658700000 26.0389670000
199      12   1  0.89000000000000001332 44.0157130000 29.3045340000 56.5113860000
200      12   2 -0.43750000000000000000 44.1645340000 30.0373100000 55.0306830000
201      12   2 -0.43750000000000000000 42.9522180000 28.1205700000 55.9374200000
202      12   3 -0.46000000000000001998 45.3198010000 28.6704890000 56.7595370000
203      12   4  0.10249999999999999389 42.9845650000 30.7199630000 54.5258150000
204      12   4  0.10249999999999999389 42.6606680000 27.0592330000 56.8795860000
205      12   4 -0.17999999999999999334 43.4299820000 31.5477740000 53.3339460000
206      12   4 -0.17999999999999999334 41.6530520000 26.1377300000 56.2134770000
207      12   5  0.05999999999999999778 42.2427270000 29.9652370000 54.2435470000
208      12   5  0.05999999999999999778 42.5612010000 31.3564920000 55.3148400000
209      12   5  0.05999999999999999778 43.5896860000 26.5290000000 57.1178070000
210      12   5  0.05999999999999999778 42.2502570000 27.4877390000 57.8059690000
211      12   5  0.05999999999999999778 43.8679480000 30.9038250000 52.5636480000
212      12   5  0.05999999999999999778 42.5681030000 32.0715350000 52.9037970000
213      12   5  0.05999999999999999778 44.1783340000 32.2884390000 53.6342380000
214      12   5  0.05999999999999999778 42.0676390000 25.7267330000 55.2870360000
215      12   5  0.05999999999999999778 41.4066940000 25.3079270000 56.8855610000
216      12   5  0.05999999999999999778 40.7314330000 26.6783000000 55.9731550000
217      13   1  0.89000000000000001332  0.9036560000 26.6599780000 14.1162250000
218      13   2 -0.43750000000000000000  0.7404460000 25.6684840000 12.7964180000
219      13   2 -0.43750000000000000000  2.4742740000 27.1319690000 13.7007560000
220      13   3 -0.46000000000000001998 -0.0000000000 27.7923770000 13.8606510000
221      13   4  0.10249999999999999389  1.5650780000 24.4714080000 12.7813550000
222      13   4  0.10249999999999999389  3.0156910000 28.2100620000 14.5030630000
223      13   4 -0.17999999999999999334  1.0433310000 23.5903980000 11.6607210000
224      13   4 -0.17999999999999999334  4.4386060000 28.4476170000 14.0265780000
225      13   5  0.05999999999999999778  2.6054280000 24.7702910000 12.6141750000
226      13   5  0.05999999999999999778  1.4933990000 23.9622800000 13.7522410000
227      13   5  0.05999999999999999778  2.3948270000 29.1026760000 14.3661700000
228      13   5  0.05999999999999999778  2.9983720000 27.9265520000 15.5658730000
229      13   5  0.05999999999999999778  1.1018680000 24.1168440000 10.7019350000
230      13   5  0.05999999999999999778  1.6466200000 22.6771390000 11.5959930000
231      13   5  0.05999999999999999778 -0.0000000000 23.3113430000 11.8406680000
232      13   5  0.05999999999999999778  4.4444710000 28.7173250000 12.9652970000
233      13   5  0.05999999999999999778  4.8907870000 29.2657390000 14.5985680000
234      13   5  0.05999999999999999778  5.0488140000 27.5482070000 14.1609640000
235      14   1  0.89000000000000001332  6.5788090000 35.5289000000 52.6547060000
236      14   2 -0.43750000000000000000  6.8891760000 36.5963620000 53.8858790000
237      14   2 -0.43750000000000000000  7.5617690000 34.3193320000 53.3127060000
238      14   3 -0.46000000000000001998  5.1744380000 35.1301400000 52.8362870000
239      14   4  0.10249999999999999389  8.2413650000 37.1252440000 53.9573140000
240      14   4  0.10249999999999999389  7.4663360000 33.0338280000 52.6512780000
241      14   4 -0.17999999999999999334  8.2130560000 38.2765450000 54.9462150000
242      14   4 -0.17999999999999999334  8.4555650000 32.1065860000 53.3366990000
243      14   5  0.05999999999999999778  8.9098440000 36.3221770000 54.2856840000
244      14   5  0.05999999999999999778  8.5571290000 37.4653820000 52.9615390000
245      14   5  0.05999999999999999778  6.4400110000 32.6608570000 52.7435900000
246      14   5  0.05999999999999999778  7.7070730000 33.1469420000 51.5838080000
247      14   5  0.05999999999999999778  7.8777930000 37.9279790000 55.9290390000
248      14   5  0.05999999999999999778  9.2187570000 38.7008730000 55.0496660000
249      14   5  0.05999999999999999778  7.5320430000 39.0633960000 54.6058070000
250      14   5  0.05999999999999999778  8.2133930000 32.0109990000 54.4003290000
251      14   5  0.05999999999999999778  8.4137340000 31.1126270000 52.8770690000
252      14   5  0.05999999999999999778  9.4767840000 32.4913700000 53.2450050000
253      15   1  0.89000000000000001332  5.6575790000 45.8497400000  4.9136360000
254      15   2 -0.43750000000000000000  6.1693280000 47.0856490000  3.9327030000
255      15   2 -0.43750000000000000000  5.5773770000 46.8319920000  6.2887650000
256      15   3 -0.46000000000000001998  4.2837540000 45.5559510000  4.4771370000
257      15   4  0.10249999999999999389  7.5073950000 47.5965010000  4.1813800000
258      15   4  0.10249999999999999389  4.9603770000 46.2103160000  7.4428630000
259      15   4 -0.17999999999999999334  7.8648210000 48.4878460000  3.0058070000
260      15   4 -0.17999999999999999334  5.0356070000 47.2132720000  8.5815360000
261      15   5  0.05999999999999999778  7.4955610000 48.1519410000  5.1252850000
262      15   5  0.05999999999999999778  8.2112210000 46.7577750000  4.2715770000
263      15   5  0.05999999999999999778  3.9215650000 45.9597000000  7.1998990000
264      15   5  0.05999999999999999778  5.4975300000 45.2845750000  7.6972480000
265      15   5  0.05999999999999999778  7.1444330000 49.3080110000  2.9151810000
266      15   5  0.05999999999999999778  8.8638980000 48.9143450000  3.1545780000
267      15   5  0.05999999999999999778  7.8609640000 47.9172580000  2.0713520000
268      15   5  0.05999999999999999778  4.5081490000 48.1344670000  8.3126840000
269      15   5  0.05999999999999999778  4.5698010000 46.7921160000  9.4796550000
270      15   5  0.05999999999999999778  6.0768490000 47.4624410000  8.8119310000
271      16   1  0.89000000000000001332  7.3788100000  7.3200750000 32.7455050000
272      16   2 -0.43750000000000000000  6.8017640000  7.7190170000 34.2486520000
273      16   2 -0.43750000000000000000  8.1814450000  8.7957990000 32.5448930000
274      16   3 -0.46000000000000001998  8.3875240000  6.2764140000 32.9853090000
275      16   4  0.10249999999999999389  5.7988740000  8.7702130000 34.2979520000
276      16   4  0.10249999999999999389  9.0477390000  8.8621840000 31.3854790000
277      16   4 -0.17999999999999999334  5.2144200000  8.7569520000 35.6988300000
278      16   4 -0.17999999999999999334  9.6244690000 10.2670260000 31.3412050000
279      16   5  0.05999999999999999778  6.2860800000  9.7239490000 34.0685440000
280      16   5  0.05999999999999999778  5.0244110000  8.5763760000 33.5432320000
281      16   5  0.05999999999999999778  9.8377860000  8.1095750000 31.4873470000
282      16   5  0.05999999999999999778  8.4678450000  8.6456270000 30.4760470000
283      16   5  0.05999999999999999778  5.9997500000  8.9314850000 36.4422260000
284      16   5  0.05999999999999999778  4.4609290000  9.5478370000 35.7933920000
285      16   5  0.05999999999999999778  4.7417820000  7.7927480000 35.9126450000
286      16   5  0.05999999999999999778 10.1891590000 10.4755390000 32.2559400000
287      16   5  0.05999999999999999778 10.2987950000 10.3654850000 30.4829780000
288      16   5  0.05999999999999999778  8.8271320000 11.0117610000 31.2464690000
289      17   1  0.89000000000000001332 45.2591090000 17.5724960000 26.9745730000
290      17   2 -0.43750000000000000000 46.9110620000 17.5405930000 26.8275280000
291      17   2 -0.43750000000000000000 45.2933410000 17.2281670000 28.6306210000
292      17   3 -0.46000000000000001998 44.8851840000 18.9852810000 26.8058760000
293      17   4  0.10249999999999999389 47.5495000000 16.2446870000 26.9895750000
294      17   4  0.10249999999999999389 44.0135950000 17.3420980000 29.3002360000
295      17   4 -0.17999999999999999334 48.9870100000 16.4002570000 26.5274230000
296      17   4 -0.17999999999999999334 44.2322750000 16.9394100000 30.7487450000
297      17   5  0.05999999999999999778 47.4893510000 15.9591970000 28.0452680000
298      17   5  0.05999999999999999778 47.0184350000 15.4944120000 26.3878910000
299      17   5  0.05999999999999999778 43.6616390000 18.3770240000 29.2226070000
300      17   5  0.05999999999999999778 43.2803280000 16.6815560000 28.8141860000
301      17   5  0.05999999999999999778 49.4989440000 17.1647050000 27.1218860000
302      17   5  0.05999999999999999778 49.5195130000 15.4492690000 26.6468020000
303      17   5  0.05999999999999999778 49.0257410000 16.6958260000 25.4738900000
304      17   5  0.05999999999999999778 44.9722140000 17.5957720000 31.2186080000
305      17   5  0.05999999999999999778 43.2904980000 17.0194290000 31.3033770000
306      17   5  0.05999999999999999778 44.5904190000 15.9066180000 30.8152750000
307      18   1  0.89000000000000001332 36.7573440000  4.9870220000 51.7571950000
308      18   2 -0.43750000000000000000 35.9259660000  5.0307900000 50.3224530000
309      18   2 -0.43750000000000000000 35.5818560000  4.0491890000 52.5323900000
310      18   3 -0.46000000000000001998 37.9281710000  4.1350160000 51.4974150000
311      18   4  0.10249999999999999389 34.6876670000  5.7922400000 50.3159260000
312      18   4  0.10249999999999999389 35.9640640000  3.5575650000 53.8405710000
313      18   4 -0.17999999999999999334 34.2679450000  5.9393970000 48.8645820000
314      18   4 -0.17999999999999999334 34.7709250000  2.7989500000 54.3965220000
315      18   5  0.05999999999999999778 33.9420330000  5.2447980000 50.9023960000
316      18   5  0.05999999999999999778 34.8556590000  6.7729950000 50.7816160000
317      18   5  0.05999999999999999778 36.8378480000  2.9046880000 53.7346270000
318      18   5  0.05999999999999999778 36.2311070000  4.4033430000 54.4914080000
319      18   5  0.05999999999999999778 34.1231890000  4.9548010000 48.4069130000
320      18   5  0.05999999999999999778 33.3242770000  6.4946290000 48.8063070000
321      18   5  0.05999999999999999778 35.0301780000  6.4793140000 48.2933710000
322      18   5  0.05999999999999999778 34.5069160000  1.9672780000 53.7349230000
323      18   5  0.05999999999999999778 35.0145590000  2.3958570000 55.3860280000
324      18   5  0.05999999999999999778 33.9014320000  3.4579100000 54.4919500000
325      19   1  0.89000000000000001332 32.3931710000 31.9416780000 16.2327660000
326      19   2 -0.43750000000000000000 31.9110220000 33.5129050000 16.0083370000
327      19   2 -0.43750000000000000000 32.8789580000 32.2070990000 17.8314500000
328      19   3 -0.46000000000000001998 31.1490190000 31.1569030000 16.2540670000
329      19   4  0.10249999999999999389 32.9640470000 34.5147600000 15.9826740000
330      19   4  0.10249999999999999389 33.2248120000 31.0078380000 18.5671630000
331      19   4 -0.17999999999999999334 32.3364390000 35.8015830000 15.4782780000