Generated by pymatgen.io.lammps.data.LammpsData

17302  atoms
16423  bonds
29768  angles
31857  dihedrals

   16  atom types
   15  bond types
   24  angle types
   21  dihedral types

-0.2500000000 60.2500000000  xlo xhi
-0.2500000000 60.2500000000  ylo yhi
-0.2500000000 60.2500000000  zlo zhi

Masses

1   14.01000
2   32.06000
3   16.00000
4   12.01000
5   19.00000
6   32.06500
7   15.99940
8   12.01070
9    1.00794
10  16.00000
11  12.01000
12  12.01000
13   1.00800
14  32.06000
15  32.06000
16   6.94100

Pair Coeffs

1       0.17  3.249999
2       0.25  3.549340
3       0.21  2.959566
4      0.066  3.499450
5      0.053  2.948875
6     0.2500  3.550000
7     0.1700  2.960000
8     0.0660  3.500000
9     0.0300  2.500000
10      0.14  2.900000
11     0.066  3.500000
12     0.066  3.500000
13      0.03  2.500000
14  0.344001  3.590322
15  0.344001  3.590322
16  0.165057  1.506000

Bond Coeffs

1   441.80  1.323
2   235.40  1.818
3   637.10  1.442
4   372.00  1.570
5   735.00  1.471
6   205.00  1.840
7   268.00  1.529
8   340.00  1.090
9   320.00  1.410
10  320.00  1.380
11  268.00  1.529
12  340.00  1.090
13  340.00  1.090
14  157.87  2.133
15  154.36  2.117


Angle Coeffs

1    93.30  107.100
2    82.90  111.800
3   104.00  102.600
4   115.80  118.500
5    94.30  113.600
6    97.50  100.200
7    80.20  125.600
8   115.00  120.172
9   100.00  108.550
10   85.00  101.443
11   75.00  110.515
12   45.00  108.398
13   37.50  110.700
14   33.00  107.800
15   60.00  109.500
16   50.00  109.500
17   35.00  109.500
18   37.50  110.700
19   33.00  107.800
20   92.60  111.550
21   35.00  109.500
22   33.00  109.500
23   73.56  112.740
24   73.56  112.740


Dihedral Coeffs

1 1 0.173400000 3 0.000000000
2 1 0.158000000 3 0.000000000
3 1 -0.001800000 3 0.000000000
4 3 3.916460000 1 0.000000000 -1.245000000 2 180.000000000 -0.381800000 3 0.000000000
5 3 -0.829000000 1 0.000000000 0.817000000 2 180.000000000 -0.104000000 3 0.000000000
6 1 0.260000000 3 0.000000000
7 3 -0.277000000 1 0.000000000 0.984500000 2 180.000000000 0.608500000 3 0.000000000
8 1 -0.139000000 3 0.000000000
9 1 0.150000000 3 0.000000000
10 1 0.150000000 3 0.000000000
11 3 0.062500000 1 0.000000000 -0.011000000 2 180.000000000 0.280500000 3 0.000000000
12 3 0.062500000 1 0.000000000 -0.011000000 2 180.000000000 0.280500000 3 0.000000000
13 1 0.370500000 3 0.000000000
14 1 0.370500000 3 0.000000000
15 3 -0.533500000 1 0.000000000 -0.783500000 2 180.000000000 0.337500000 3 0.000000000
16 1 0.370500000 3 0.000000000
17 3 1.119000000 1 0.000000000 -1.163500000 2 180.000000000 -0.341500000 3 0.000000000
18 1 0.234000000 3 0.000000000
19 1 0.150000000 3 0.000000000
20 4 5.431700000 1 0.000000000 -3.590000000 2 180.000000000 1.055600000 3 0.000000000 0.058320000 4 180.000000000
21 4 5.431700000 1 0.000000000 -3.590000000 2 180.000000000 1.055600000 3 0.000000000 0.058320000 4 180.000000000


Atoms

1         1   1 -0.46958377801494138870 42.4017810000 41.1108030000 45.3978200000
2         1   2  0.72572038420490936339 43.9384230000 41.6050700000 45.5699230000
3         1   3 -0.37709000355745292410 44.9252890000 40.7347890000 44.9142650000
4         1   3 -0.37709000355745292410 44.1610800000 43.0594420000 45.5331480000
5         1   4  0.24902170046246888124 44.0638200000 41.1554460000 47.3986830000
6         1   5 -0.11383849163998578657 43.8499460000 39.8472280000 47.6203870000
7         1   5 -0.11383849163998578657 43.2002030000 41.8602020000 48.1495930000
8         1   5 -0.11383849163998578657 45.3124180000 41.4470510000 47.8241780000
9         1   2  0.72572038420490936339 41.4714370000 41.5011580000 44.1476890000
10        1   3 -0.37709000355745292410 40.4364830000 40.4719920000 43.9871360000
11        1   3 -0.37709000355745292410 42.1718830000 42.0195850000 42.9638550000
12        1   4  0.24902170046246888124 40.4762810000 42.9834630000 44.7728230000
13        1   5 -0.11383849163998578657 39.7901810000 42.6761750000 45.8912600000
14        1   5 -0.11383849163998578657 41.2604740000 44.0384950000 45.0402760000
15        1   5 -0.11383849163998578657 39.5806820000 43.3586560000 43.8322800000
16        2   1 -0.46958377801494138870  6.9450560000 40.3374480000 38.0561600000
17        2   2  0.72572038420490936339  7.3045770000 41.1474790000 39.4162280000
18        2   3 -0.37709000355745292410  6.8204110000 42.5354540000 39.4333090000
19        2   3 -0.37709000355745292410  7.2447960000 40.3749960000 40.6675560000
20        2   4  0.24902170046246888124  9.1488030000 41.3025560000 39.0460530000
21        2   5 -0.11383849163998578657  9.3875160000 41.9634010000 37.9003530000
22        2   5 -0.11383849163998578657  9.7499860000 40.1024590000 38.9772910000
23        2   5 -0.11383849163998578657  9.7278190000 41.9961020000 40.0504490000
24        2   2  0.72572038420490936339  5.5673870000 39.5440160000 37.8254270000
25        2   3 -0.37709000355745292410  5.3066060000 39.4560810000 36.3830850000
26        2   3 -0.37709000355745292410  4.4706140000 39.8823160000 38.7438480000
27        2   4  0.24902170046246888124  5.9977390000 37.7563680000 38.2697980000
28        2   5 -0.11383849163998578657  7.0239400000 37.3000190000 37.5250040000
29        2   5 -0.11383849163998578657  6.3295990000 37.6259220000 39.5630240000
30        2   5 -0.11383849163998578657  4.9318620000 36.9597580000 38.0314600000
31        3   1 -0.46958377801494138870 21.3808510000 42.0868150000 40.0807670000
32        3   2  0.72572038420490936339 20.5012680000 40.8075720000 40.5551730000
33        3   3 -0.37709000355745292410 21.1526640000 39.9786880000 41.5797790000
34        3   3 -0.37709000355745292410 19.0479330000 41.0184810000 40.6524260000
35        3   4  0.24902170046246888124 20.7298670000 39.8338750000 38.9545770000
36        3   5 -0.11383849163998578657 22.0227520000 39.5793460000 38.6900220000
37        3   5 -0.11383849163998578657 20.1978230000 40.4719680000 37.8980980000
38        3   5 -0.11383849163998578657 20.0941180000 38.6487620000 39.0826690000
39        3   2  0.72572038420490936339 21.3575300000 43.5123180000 40.8211320000
40        3   3 -0.37709000355745292410 22.6247320000 44.2051550000 40.5560580000
41        3   3 -0.37709000355745292410 20.7935750000 43.5210750000 42.1786050000
42        3   4  0.24902170046246888124 20.1216740000 44.5251390000 39.8086070000
43        3   5 -0.11383849163998578657 20.4848470000 44.5871180000 38.5123330000
44        3   5 -0.11383849163998578657 18.8826590000 44.0147760000 39.8714760000
45        3   5 -0.11383849163998578657 20.0749400000 45.7903640000 40.2824290000
46        4   1 -0.46958377801494138870 31.7770450000 17.4141110000 26.3886080000
47        4   2  0.72572038420490936339 32.6645130000 17.6328630000 27.7301520000
48        4   3 -0.37709000355745292410 33.4256590000 18.8904590000 27.7472000000
49        4   3 -0.37709000355745292410 32.0630170000 17.1672730000 28.9901330000
50        4   4  0.24902170046246888124 33.9496450000 16.3168970000 27.3071660000
51        4   5 -0.11383849163998578657 34.5818210000 16.5718750000 26.1488630000
52        4   5 -0.11383849163998578657 33.4064760000 15.0897450000 27.2333620000
53        4   5 -0.11383849163998578657 34.8782320000 16.2977520000 28.2882050000
54        4   2  0.72572038420490936339 30.2822300000 17.9729020000 26.2041540000
55        4   3 -0.37709000355745292410 30.0118430000 18.1397420000 24.7705760000
56        4   3 -0.37709000355745292410 29.8672660000 19.0193350000 27.1494780000
57        4   4  0.24902170046246888124 29.1905910000 16.4948830000 26.6537550000
58        4   5 -0.11383849163998578657 29.4740460000 15.4248890000 25.8851020000
59        4   5 -0.11383849163998578657 29.3342670000 16.1363410000 27.9384280000
60        4   5 -0.11383849163998578657 27.8917920000 16.8116100000 26.4530290000
61        5   1 -0.46958377801494138870  9.3995280000 26.1585860000 47.4600670000
62        5   2  0.72572038420490936339  9.6096880000 27.1937780000 46.2274270000
63        5   3 -0.37709000355745292410 10.9337430000 27.8319590000 46.1993860000
64        5   3 -0.37709000355745292410  8.9950460000 26.8114700000 44.9459510000
65        5   4  0.24902170046246888124  8.4657260000 28.5258290000 46.9196980000
66        5   5 -0.11383849163998578657  8.8671610000 28.9713040000 48.1224980000
67        5   5 -0.11383849163998578657  7.1982090000 28.0923580000 47.0287250000
68        5   5 -0.11383849163998578657  8.4702020000 29.5751460000 46.0688220000
69        5   2  0.72572038420490936339  9.8149600000 24.6076960000 47.4062440000
70        5   3 -0.37709000355745292410 10.0569310000 24.1337920000 48.7748040000
71        5   3 -0.37709000355745292410 10.7423010000 24.2288740000 46.3304250000
72        5   4  0.24902170046246888124  8.2046770000 23.7260210000 46.9501790000
73        5   5 -0.11383849163998578657  7.2277410000 24.0008720000 47.8368100000
74        5   5 -0.11383849163998578657  7.7703980000 24.0725250000 45.7291480000
75        5   5 -0.11383849163998578657  8.4011050000 22.3885440000 46.9577860000
76        6   1 -0.46958377801494138870  6.8100400000 13.4402950000  8.2803280000
77        6   2  0.72572038420490936339  5.6418680000 14.2678570000  7.5150150000
78        6   3 -0.37709000355745292410  5.8205580000 14.3490530000  6.0580800000
79        6   3 -0.37709000355745292410  4.2769720000 14.1008220000  8.0396870000
80        6   4  0.24902170046246888124  6.1848220000 15.9619490000  8.1454920000
81        6   5 -0.11383849163998578657  7.4418960000 16.2658640000  7.7798010000
82        6   5 -0.11383849163998578657  6.0984960000 16.0511930000  9.4837610000
83        6   5 -0.11383849163998578657  5.3643570000 16.8959970000  7.6168420000
84        6   2  0.72572038420490936339  6.7875160000 11.8476700000  8.4895660000
85        6   3 -0.37709000355745292410  8.1672810000 11.3703840000  8.6462130000
86        6   3 -0.37709000355745292410  5.8520260000 11.1015750000  7.6357180000
87        6   4  0.24902170046246888124  6.0833640000 11.6326100000 10.2320570000
88        6   5 -0.11383849163998578657  6.8224540000 12.2944230000 11.1440930000
89        6   5 -0.11383849163998578657  4.8188500000 12.0715950000 10.3208240000
90        6   5 -0.11383849163998578657  6.0936550000 10.3231700000 10.5678320000
91        7   1 -0.46958377801494138870  8.5745660000 53.2734670000 35.4363360000
92        7   2  0.72572038420490936339  7.1136160000 52.5961190000 35.6413060000
93        7   3 -0.37709000355745292410  7.1386870000 51.1282730000 35.7186490000
94        7   3 -0.37709000355745292410  6.1775400000 53.3223120000 36.5145370000
95        7   4  0.24902170046246888124  6.5045210000 52.9595390000 33.8922550000
96        7   5 -0.11383849163998578657  7.2779020000 52.3903850000 32.9518970000
97        7   5 -0.11383849163998578657  6.4396520000 54.2794040000 33.6470430000
98        7   5 -0.11383849163998578657  5.2581560000 52.4548780000 33.7619930000
99        7   2  0.72572038420490936339  9.5621740000 53.6525620000 36.6453270000
100       7   3 -0.37709000355745292410 10.9424330000 53.6636640000 36.1444740000
101       7   3 -0.37709000355745292410  9.2628430000 53.0233020000 37.9396560000
102       7   4  0.24902170046246888124  9.2238650000 55.4896560000 36.9436310000
103       7   5 -0.11383849163998578657  9.4254270000 56.2128040000 35.8244830000
104       7   5 -0.11383849163998578657  7.9680230000 55.7079950000 37.3616860000
105       7   5 -0.11383849163998578657 10.0654340000 55.9584640000 37.8920350000
106       8   1 -0.46958377801494138870 27.3365830000 35.0335290000  3.0961640000
107       8   2  0.72572038420490936339 26.0309130000 35.6687480000  2.3702750000
108       8   3 -0.37709000355745292410 25.3050040000 36.6480950000  3.1919300000
109       8   3 -0.37709000355745292410 26.1511970000 35.9260660000  0.9261690000
110       8   4  0.24902170046246888124 24.9864690000 34.1007990000  2.4839530000
111       8   5 -0.11383849163998578657 24.8028690000 33.6984920000  3.7531130000
112       8   5 -0.11383849163998578657 25.5283400000 33.0849250000  1.7905860000
113       8   5 -0.11383849163998578657 23.7712320000 34.3593240000  1.9534430000
114       8   2  0.72572038420490936339 28.7965920000 35.7024520000  3.0554420000
115       8   3 -0.37709000355745292410 29.5551280000 35.2573310000  4.2312740000
116       8   3 -0.37709000355745292410 28.8441250000 37.1148510000  2.6508130000
117       8   4  0.24902170046246888124 29.6681170000 34.7950330000  1.6428590000
118       8   5 -0.11383849163998578657 29.6813120000 33.4635700000  1.8504510000
119       8   5 -0.11383849163998578657 29.0819360000 35.0275410000  0.4588350000
120       8   5 -0.11383849163998578657 30.9520290000 35.2099910000  1.5600150000
121       9   1 -0.46958377801494138870 44.5754860000 50.8233290000 17.8324960000
122       9   2  0.72572038420490936339 44.5327330000 52.3279520000 17.2246530000
123       9   3 -0.37709000355745292410 44.2761120000 53.3724900000 18.2267850000
124       9   3 -0.37709000355745292410 45.4899220000 52.6201440000 16.1455140000
125       9   4  0.24902170046246888124 42.8784080000 52.1137930000 16.3417060000
126       9   5 -0.11383849163998578657 41.8818120000 51.8049070000 17.1888850000
127       9   5 -0.11383849163998578657 42.9358560000 51.1664030000 15.3901100000
128       9   5 -0.11383849163998578657 42.5619720000 53.2818260000 15.7411690000
129       9   2  0.72572038420490936339 45.8963220000 50.1425960000 18.4430160000
130       9   3 -0.37709000355745292410 45.4953180000 49.1049770000 19.4014700000
131       9   3 -0.37709000355745292410 46.9934610000 51.0606290000 18.7811830000
132       9   4  0.24902170046246888124 46.5830170000 49.1232890000 17.0050240000
133       9   5 -0.11383849163998578657 45.6715740000 48.2403950000 16.5513380000
134       9   5 -0.11383849163998578657 46.9631510000 49.8968720000 15.9770900000
135       9   5 -0.11383849163998578657 47.6621170000 48.4223970000 17.4194840000
136      10   1 -0.46958377801494138870 51.8891950000 21.0833320000 14.5704530000
137      10   2  0.72572038420490936339 51.2043290000 19.9685060000 13.6095600000
138      10   3 -0.37709000355745292410 49.7664960000 19.7743880000 13.8464890000
139      10   3 -0.37709000355745292410 51.6932810000 19.9178040000 12.2223040000
140      10   4  0.24902170046246888124 52.0184920000 18.4878190000 14.4503670000
141      10   5 -0.11383849163998578657 51.7010930000 18.4002660000 15.7534100000
142      10   5 -0.11383849163998578657 53.3576070000 18.5216230000 14.3407810000
143      10   5 -0.11383849163998578657 51.5840860000 17.3616850000 13.8435810000
144      10   2  0.72572038420490936339 51.9263700000 22.6535410000 14.2331080000
145      10   3 -0.37709000355745292410 52.0459190000 23.4056160000 15.4885690000
146      10   3 -0.37709000355745292410 50.9874350000 23.1098120000 13.1981820000
147      10   4  0.24902170046246888124 53.6280710000 22.9045720000 13.4459900000
148      10   5 -0.11383849163998578657 54.6137020000 22.4979750000 14.2701700000
149      10   5 -0.11383849163998578657 53.7496550000 22.2377050000 12.2883690000
150      10   5 -0.11383849163998578657 53.8217390000 24.2180870000 13.1917100000
151      11   1 -0.46958377801494138870 19.2348500000  0.9453660000 16.5986200000
152      11   2  0.72572038420490936339 20.0620280000  2.1255430000 17.3457130000
153      11   3 -0.37709000355745292410 21.3131040000  2.5006580000 16.6709670000
154      11   3 -0.37709000355745292410 19.2575990000  3.1928770000 17.9620050000
155      11   4  0.24902170046246888124 20.6191440000  1.0571090000 18.7984070000
156      11   5 -0.11383849163998578657 21.3497050000 -0.0005110000 18.4059140000
157      11   5 -0.11383849163998578657 19.5780940000  0.6094970000 19.5210690000
158      11   5 -0.11383849163998578657 21.3901890000  1.8120950000 19.6111580000
159      11   2  0.72572038420490936339 18.1722550000  1.2047800000 15.4220410000
160      11   3 -0.37709000355745292410 18.0737040000 -0.0056490000 14.5966670000
161      11   3 -0.37709000355745292410 18.2404190000  2.5230090000 14.7751420000
162      11   4  0.24902170046246888124 16.5056390000  1.2227740000 16.3167040000
163      11   5 -0.11383849163998578657 16.3019230000  0.0767390000 16.9957970000
164      11   5 -0.11383849163998578657 16.4106340000  2.2436340000 17.1818040000
165      11   5 -0.11383849163998578657 15.5068870000  1.3479090000 15.4143060000
166      12   1 -0.46958377801494138870  9.7345880000 54.8672140000 18.2328060000
167      12   2  0.72572038420490936339 10.4362600000 54.1363060000 19.5011200000
168      12   3 -0.37709000355745292410 11.8859520000 54.3611160000 19.5961860000
169      12   3 -0.37709000355745292410  9.6543640000 54.1057810000 20.7476470000
170      12   4  0.24902170046246888124 10.2810760000 52.3889190000 18.8048400000
171      12   5 -0.11383849163998578657 10.9196030000 52.2467330000 17.6307900000
172      12   5 -0.11383849163998578657  8.9975750000 52.0273240000 18.6367480000
173      12   5 -0.11383849163998578657 10.8392250000 51.5289210000 19.6845850000
174      12   2  0.72572038420490936339  9.1959930000 56.3804940000 18.2581690000
175      12   3 -0.37709000355745292410  9.1905080000 56.9049620000 16.8866760000
176      12   3 -0.37709000355745292410  9.6946990000 57.2206600000 19.3564710000
177      12   4  0.24902170046246888124  7.3503680000 56.1951410000 18.6292080000
178      12   5 -0.11383849163998578657  6.7431840000 55.4129470000 17.7151170000
179      12   5 -0.11383849163998578657  7.1323200000 55.6662900000 19.8426130000
180      12   5 -0.11383849163998578657  6.7552070000 57.4083260000 18.5911220000
181      13   1 -0.46958377801494138870 34.5448470000 43.4003160000 10.9408940000
182      13   2  0.72572038420490936339 34.3881060000 43.4579070000 12.5556100000
183      13   3 -0.37709000355745292410 33.5451660000 44.5618200000 13.0372850000
184      13   3 -0.37709000355745292410 34.2970560000 42.1613880000 13.2461710000
185      13   4  0.24902170046246888124 36.1525030000 44.0428890000 12.8826370000
186      13   5 -0.11383849163998578657 36.4216820000 45.2170000000 12.2865390000
187      13   5 -0.11383849163998578657 37.0636950000 43.1419620000 12.4771210000
188      13   5 -0.11383849163998578657 36.3050790000 44.2119640000 14.2142570000
189      13   2  0.72572038420490936339 33.5153100000 42.6413420000  9.9689100000
190      13   3 -0.37709000355745292410 33.5812580000 43.2546220000  8.6363830000
191      13   3 -0.37709000355745292410 32.2079580000 42.3088160000 10.5529570000
192      13   4  0.24902170046246888124 34.3266020000 40.9569120000  9.6810660000
193      13   5 -0.11383849163998578657 35.5657830000 41.0912840000  9.1687810000
194      13   5 -0.11383849163998578657 34.4175980000 40.2429010000 10.8130950000
195      13   5 -0.11383849163998578657 33.5925710000 40.2441240000  8.7975400000
196      14   1 -0.46958377801494138870 40.4556640000 47.4383790000 17.0459840000
197      14   2  0.72572038420490936339 40.7002320000 49.0042500000 16.6946650000
198      14   3 -0.37709000355745292410 42.1126410000 49.4111920000 16.7207990000
199      14   3 -0.37709000355745292410 39.8297430000 49.5810450000 15.6575140000
200      14   4  0.24902170046246888124 39.9968190000 49.6605590000 18.3184630000
201      14   5 -0.11383849163998578657 40.6639240000 49.1982580000 19.3897130000
202      14   5 -0.11383849163998578657 38.6963340000 49.3536030000 18.4630270000
203      14   5 -0.11383849163998578657 40.1040800000 51.0072450000 18.3155020000
204      14   2  0.72572038420490936339 40.5053920000 46.2589810000 15.9563570000
205      14   3 -0.37709000355745292410 40.8409450000 45.0005950000 16.6345610000
206      14   3 -0.37709000355745292410 41.1525160000 46.5922760000 14.6792510000
207      14   4  0.24902170046246888124 38.6902030000 45.9983510000 15.4921210000
208      14   5 -0.11383849163998578657 37.9437180000 45.7109030000 16.5766460000
209      14   5 -0.11383849163998578657 38.1635480000 47.0790190000 14.8968300000
210      14   5 -0.11383849163998578657 38.5853270000 44.9585230000 14.6346560000
211      15   1 -0.46958377801494138870 46.4332510000 36.5107240000 19.1073590000
212      15   2  0.72572038420490936339 46.6275270000 37.9887690000 19.7498760000
213      15   3 -0.37709000355745292410 48.0229940000 38.4501140000 19.7817410000
214      15   3 -0.37709000355745292410 45.5767940000 38.9731110000 19.4446610000
215      15   4  0.24902170046246888124 46.2728170000 37.4564410000 21.5255610000
216      15   5 -0.11383849163998578657 47.1329000000 36.5200310000 21.9611310000
217      15   5 -0.11383849163998578657 45.0226570000 36.9840450000 21.6681250000
218      15   5 -0.11383849163998578657 46.3986220000 38.5366400000 22.3270720000
219      15   2  0.72572038420490936339 46.2458450000 36.2363460000 17.5356280000
220      15   3 -0.37709000355745292410 46.6900500000 34.8690940000 17.2366340000
221      15   3 -0.37709000355745292410 46.6302570000 37.3381510000 16.6417000000
222      15   4  0.24902170046246888124 44.3706310000 36.1098600000 17.3213210000
223      15   5 -0.11383849163998578657 43.8511600000 35.1491350000 18.1107620000
224      15   5 -0.11383849163998578657 43.7529290000 37.2656230000 17.6080920000
225      15   5 -0.11383849163998578657 44.0802940000 35.7896800000 16.0404330000
226      16   1 -0.46958377801494138870 23.6164310000 16.8853780000 52.2828130000
227      16   2  0.72572038420490936339 23.4553230000 17.7981730000 50.9501310000
228      16   3 -0.37709000355745292410 24.3681730000 18.9493220000 50.8977770000
229      16   3 -0.37709000355745292410 23.1739770000 17.0766630000 49.6985750000
230      16   4  0.24902170046246888124 21.7943390000 18.5437600000 51.4476050000
231      16   5 -0.11383849163998578657 21.8633680000 19.2211200000 52.6063740000
232      16   5 -0.11383849163998578657 20.8367180000 17.6073650000 51.5594410000
233      16   5 -0.11383849163998578657 21.4116070000 19.4110930000 50.4851450000
234      16   2  0.72572038420490936339 24.6671220000 15.6776890000 52.4180070000
235      16   3 -0.37709000355745292410 24.9789950000 15.4772480000 53.8387990000
236      16   3 -0.37709000355745292410 25.7508520000 15.6559660000 51.4250760000
237      16   4  0.24902170046246888124 23.6425470000 14.1416340000 52.0067460000
238      16   5 -0.11383849163998578657 22.5748370000 14.0324830000 52.8216970000
239      16   5 -0.11383849163998578657 23.2015270000 14.1560730000 50.7399100000
240      16   5 -0.11383849163998578657 24.3990910000 13.0334510000 52.1712350000
241      17   1 -0.46958377801494138870 25.7195580000 47.2234290000 11.7950400000
242      17   2  0.72572038420490936339 25.9825300000 48.5996690000 10.9752850000
243      17   3 -0.37709000355745292410 26.4291000000 48.3962410000  9.5895090000
244      17   3 -0.37709000355745292410 25.0536310000 49.7075560000 11.2507080000
245      17   4  0.24902170046246888124 27.5567300000 49.0618500000 11.9083080000
246      17   5 -0.11383849163998578657 28.5153710000 48.1273170000 11.7900500000
247      17   5 -0.11383849163998578657 27.3235280000 49.2679520000 13.2157950000
248      17   5 -0.11383849163998578657 28.0368330000 50.2130280000 11.3893040000
249      17   2  0.72572038420490936339 24.3254000000 46.4254250000 11.7791160000
250      17   3 -0.37709000355745292410 24.5841030000 45.0126840000 12.0846120000
251      17   3 -0.37709000355745292410 23.3971200000 46.7772650000 10.6949760000
252      17   4  0.24902170046246888124 23.4460790000 47.0244710000 13.3431790000
253      17   5 -0.11383849163998578657 24.1933810000 46.7995130000 14.4418130000
254      17   5 -0.11383849163998578657 23.1642840000 48.3349720000 13.2906490000
255      17   5 -0.11383849163998578657 22.2818250000 46.3543830000 13.4947750000
256      18   1 -0.46958377801494138870 39.1081340000 25.4694590000 29.1875810000
257      18   2  0.72572038420490936339 37.9353700000 26.1117430000 28.2670980000
258      18   3 -0.37709000355745292410 37.4252060000 27.3999700000 28.7584080000
259      18   3 -0.37709000355745292410 38.0767350000 25.9288350000 26.8135900000
260      18   4  0.24902170046246888124 36.6123360000 24.8641340000 28.7723730000
261      18   5 -0.11383849163998578657 36.3779440000 24.8737050000 30.0957390000
262      18   5 -0.11383849163998578657 36.9372070000 23.6120080000 28.4076540000
263      18   5 -0.11383849163998578657 35.4597250000 25.1890950000 28.1471010000
264      18   2  0.72572038420490936339 40.6682130000 25.8124020000 29.0164530000
265      18   3 -0.37709000355745292410 41.3485130000 25.5778070000 30.2963940000
266      18   3 -0.37709000355745292410 40.9779350000 27.0206200000 28.2385500000
267      18   4  0.24902170046246888124 41.3244350000 24.3997140000 27.9431210000
268      18   5 -0.11383849163998578657 41.0862620000 23.2013260000 28.5116300000
269      18   5 -0.11383849163998578657 40.7724340000 24.3992870000 26.7204700000
270      18   5 -0.11383849163998578657 42.6623370000 24.5250140000 27.7954550000
271      19   1 -0.46958377801494138870  5.5774920000  3.6034840000 53.3533030000
272      19   2  0.72572038420490936339  6.1084650000  3.4944380000 54.8834550000
273      19   3 -0.37709000355745292410  5.3954320000  4.3653300000 55.8291360000
274      19   3 -0.37709000355745292410  6.5068920000  2.1527950000 55.3388400000
275      19   4  0.24902170046246888124  7.7403390000  4.3884570000 54.5672770000
276      19   5 -0.11383849163998578657  7.5590170000  5.6380300000 54.1068230000
277      19   5 -0.11383849163998578657  8.5169060000  3.7230080000 53.6952070000
278      19   5 -0.11383849163998578657  8.4127920000  4.4731590000 55.7359130000
279      19   2  0.72572038420490936339  4.3574210000  2.7388800000 52.7662540000
280      19   3 -0.37709000355745292410  3.7660220000  3.4616450000 51.6331390000
281      19   3 -0.37709000355745292410  3.4813840000  2.1063250000 53.7628930000
282      19   4  0.24902170046246888124  5.2084510000  1.2786630000 51.9166260000
283      19   5 -0.11383849163998578657  6.0825890000  1.6982150000 50.9807190000
284      19   5 -0.11383849163998578657  5.8706620000  0.5053120000 52.7901170000
285      19   5 -0.11383849163998578657  4.2834300000  0.5104150000 51.2988750000
286      20   1 -0.46958377801494138870 31.6185550000 52.5898330000 50.9293430000
287      20   2  0.72572038420490936339 33.1938390000 52.7173760000 50.5586630000
288      20   3 -0.37709000355745292410 34.0998900000 52.3351150000 51.6514270000
289      20   3 -0.37709000355745292410 33.5695120000 52.3505460000 49.1837340000
290      20   4  0.24902170046246888124 33.2242130000 54.6045020000 50.5676890000
291      20   5 -0.11383849163998578657 32.8679460000 55.1168740000 51.7580160000
292      20   5 -0.11383849163998578657 32.4207850000 55.1243330000 49.6239400000
293      20   5 -0.11383849163998578657 34.4852870000 55.0112890000 50.3044510000
294      20   2  0.72572038420490936339 30.7669120000 51.2380520000 50.7616150000
295      20   3 -0.37709000355745292410 29.6336420000 51.2726780000 51.6946700000
296      20   3 -0.37709000355745292410 31.5482330000 50.0019990000 50.6113990000
297      20   4  0.24902170046246888124 29.9179520000 51.4462390000 49.0840340000
298      20   5 -0.11383849163998578657 29.1748360000 52.5698450000 49.0472800000
299      20   5 -0.11383849163998578657 30.8019300000 51.4967500000 48.0762580000
300      20   5 -0.11383849163998578657 29.0913150000 50.4002580000 48.8602450000
301      21   1 -0.46958377801494138870 11.6367390000 34.0375970000 30.1813080000
302      21   2  0.72572038420490936339 12.7921820000 33.2792630000 31.0328180000
303      21   3 -0.37709000355745292410 14.1616470000 33.6160350000 30.6176890000
304      21   3 -0.37709000355745292410 12.5263770000 33.0958390000 32.4687250000
305      21   4  0.24902170046246888124 12.4812520000 31.5787770000 30.2752410000
306      21   5 -0.11383849163998578657 12.6494360000 31.5735110000 28.9418190000
307      21   5 -0.11383849163998578657 11.2462130000 31.1249710000 30.5493210000
308      21   5 -0.11383849163998578657 13.3670830000 30.7077740000 30.8060270000
309      21   2  0.72572038420490936339 11.0686590000 35.4954680000 30.5455080000
310      21   3 -0.37709000355745292410 10.5321910000 36.1135510000 29.3263830000
311      21   3 -0.37709000355745292410 11.8928090000 36.2940910000 31.4641120000
312      21   4  0.24902170046246888124  9.5010480000 35.1321020000 31.5399500000
313      21   5 -0.11383849163998578657  8.6409880000 34.3690700000 30.8369980000
314      21   5 -0.11383849163998578657  9.7720380000 34.5023570000 32.6930180000
315      21   5 -0.11383849163998578657  8.8724440000 36.2914790000 31.8369180000
316      22   1 -0.46958377801494138870 51.0163890000 51.9090850000 43.7904070000
317      22   2  0.72572038420490936339 50.3269180000 52.3278300000 45.1991200000
318      22   3 -0.37709000355745292410 48.9499860000 51.8390890000 45.3615160000
319      22   3 -0.37709000355745292410 51.2075720000 52.3294040000 46.3783450000
320      22   4  0.24902170046246888124 50.1243180000 54.1522370000 44.7600970000
321      22   5 -0.11383849163998578657 49.3627140000 54.3347710000 43.6678660000
322      22   5 -0.11383849163998578657 51.3085670000 54.7546750000 44.5575990000
323      22   5 -0.11383849163998578657 49.5175670000 54.7742440000 45.7945240000
324      22   2  0.72572038420490936339 51.7977530000 50.5255820000 43.5534850000
325      22   3 -0.37709000355745292410 51.7598820000 50.1985900000 42.1224950000
326      22   3 -0.37709000355745292410 51.5512100000 49.4711390000 44.5475790000
327      22   4  0.24902170046246888124 53.6140590000 50.9836570000 43.8172140000
328      22   5 -0.11383849163998578657 53.9941370000 51.9761540000 42.9886300000
329      22   5 -0.11383849163998578657 53.8556580000 51.3756640000 45.0771900000
330      22   5 -0.11383849163998578657 54.3953150000 49.9112680000 43.5581620000