Generated by pymatgen.io.lammps.data.LammpsData

17380  atoms
16738  bonds
30023  angles
30552  dihedrals

   17  atom types
   16  bond types
   24  angle types
   21  dihedral types

-0.2500000000 60.2500000000  xlo xhi
-0.2500000000 60.2500000000  ylo yhi
-0.2500000000 60.2500000000  zlo zhi

Masses

1   30.973762
2   15.999400
3   15.999400
4   12.010700
5    1.007940
6   14.010000
7   32.060000
8   16.000000
9   12.010000
10  19.000000
11  16.000000
12  12.010000
13  12.010000
14   1.008000
15  32.060000
16  32.060000
17   6.941000

Pair Coeffs

1     0.2000  3.740000
2     0.1400  2.850000
3     0.2000  2.980000
4     0.0660  3.500000
5     0.0300  2.500000
6       0.17  3.249999
7       0.25  3.549340
8       0.21  2.959566
9      0.066  3.499450
10     0.053  2.948875
11      0.14  2.900000
12     0.066  3.500000
13     0.066  3.500000
14      0.03  2.500000
15  0.344001  3.590322
16  0.344001  3.590322
17  0.165057  1.506000

Bond Coeffs

1   405.00  1.623
2   675.00  1.490
3   320.00  1.410
4   268.00  1.529
5   340.00  1.090
6   441.80  1.323
7   235.40  1.818
8   637.10  1.442
9   372.00  1.570
10  320.00  1.410
11  320.00  1.380
12  268.00  1.529
13  340.00  1.090
14  340.00  1.090
15  157.87  2.133
16  154.36  2.117


Angle Coeffs

1   120.00  102.380
2   100.00  115.861
3    75.00  119.246
4    50.00  109.500
5    35.00  109.500
6    37.50  110.700
7    33.00  107.800
8    93.30  107.100
9    82.90  111.800
10  104.00  102.600
11  115.80  118.500
12   94.30  113.600
13   97.50  100.200
14   80.20  125.600
15   60.00  109.500
16   50.00  109.500
17   35.00  109.500
18   37.50  110.700
19   33.00  107.800
20   92.60  111.550
21   35.00  109.500
22   33.00  109.500
23   73.56  112.740
24   73.56  112.740


Dihedral Coeffs

1 3 0.918000000 1 0.000000000 0.229000000 2 180.000000000 0.320500000 3 0.000000000
2 1 0.000000000 1 0.000000000
3 3 -2.655500000 1 0.000000000 -0.223500000 2 180.000000000 0.241500000 3 0.000000000
4 1 0.030000000 3 0.000000000
5 1 0.234000000 3 0.000000000
6 1 0.150000000 3 0.000000000
7 1 0.173400000 3 0.000000000
8 1 0.158000000 3 0.000000000
9 1 -0.001800000 3 0.000000000
10 3 3.916460000 1 0.000000000 -1.245000000 2 180.000000000 -0.381800000 3 0.000000000
11 3 0.062500000 1 0.000000000 -0.011000000 2 180.000000000 0.280500000 3 0.000000000
12 3 0.062500000 1 0.000000000 -0.011000000 2 180.000000000 0.280500000 3 0.000000000
13 1 0.370500000 3 0.000000000
14 1 0.370500000 3 0.000000000
15 3 -0.533500000 1 0.000000000 -0.783500000 2 180.000000000 0.337500000 3 0.000000000
16 1 0.370500000 3 0.000000000
17 3 1.119000000 1 0.000000000 -1.163500000 2 180.000000000 -0.341500000 3 0.000000000
18 1 0.234000000 3 0.000000000
19 1 0.150000000 3 0.000000000
20 4 5.431700000 1 0.000000000 -3.590000000 2 180.000000000 1.055600000 3 0.000000000 0.058320000 4 180.000000000
21 4 5.431700000 1 0.000000000 -3.590000000 2 180.000000000 1.055600000 3 0.000000000 0.058320000 4 180.000000000


Atoms

1         1   1  1.23069999999999990514 32.8169830000 54.3779300000 42.9998970000
2         1   2 -0.46110000000000000986 32.7887120000 55.9782960000 43.1280450000
3         1   2 -0.46110000000000000986 34.3802070000 54.0477280000 43.1586160000
4         1   2 -0.46110000000000000986 32.5764570000 54.1540380000 41.4286650000
5         1   3 -0.66610000000000002540 31.9021960000 53.6379400000 43.9084430000
6         1   4  0.15290000000000000813 32.7989990000 56.5867110000 44.4483130000
7         1   4  0.15290000000000000813 34.8075870000 52.6632780000 43.2717160000
8         1   4  0.15290000000000000813 31.2208890000 54.1905430000 40.9041330000
9         1   4 -0.17999999999999999334 32.4779430000 58.0603840000 44.2766350000
10        1   4 -0.17999999999999999334 36.2669350000 52.6647990000 43.6846570000
11        1   4 -0.17999999999999999334 31.2671630000 53.6722960000 39.4787190000
12        1   5  0.05999999999999999778 32.0591320000 56.0802980000 45.0772260000
13        1   5  0.05999999999999999778 33.7942930000 56.4439340000 44.8853260000
14        1   5  0.05999999999999999778 34.1757390000 52.1583700000 44.0106600000
15        1   5  0.05999999999999999778 34.6687750000 52.1805830000 42.2963340000
16        1   5  0.05999999999999999778 30.5792890000 53.5729330000 41.5412870000
17        1   5  0.05999999999999999778 30.8663970000 55.2273390000 40.9410560000
18        1   5  0.05999999999999999778 31.4848190000 58.1889280000 43.8338150000
19        1   5  0.05999999999999999778 32.4921770000 58.5600810000 45.2523100000
20        1   5  0.05999999999999999778 33.2142360000 58.5431540000 43.6261520000
21        1   5  0.05999999999999999778 36.3915830000 53.1562380000 44.6560480000
22        1   5  0.05999999999999999778 36.6322190000 51.6341390000 43.7646740000
23        1   5  0.05999999999999999778 36.8769100000 53.1957130000 42.9452650000
24        1   5  0.05999999999999999778 31.6290330000 52.6396800000 39.4558350000
25        1   5  0.05999999999999999778 30.2618210000 53.6995700000 39.0415540000
26        1   5  0.05999999999999999778 31.9325160000 54.2883290000 38.8648090000
27        2   1  1.23069999999999990514 38.1764020000 40.9990440000 13.2053660000
28        2   2 -0.46110000000000000986 37.1745690000 39.9326540000 13.8668320000
29        2   2 -0.46110000000000000986 37.6645080000 41.0545440000 11.6845840000
30        2   2 -0.46110000000000000986 39.5385800000 40.1592770000 13.0788220000
31        2   3 -0.66610000000000002540 38.2832020000 42.3079220000 13.9020070000
32        2   4  0.15290000000000000813 35.8604870000 40.3699080000 14.3088470000
33        2   4  0.15290000000000000813 38.2171440000 42.0517050000 10.7832460000
34        2   4  0.15290000000000000813 40.4075190000 40.0341750000 14.2378410000
35        2   4 -0.17999999999999999334 35.2593730000 39.2495990000 15.1382020000
36        2   4 -0.17999999999999999334 37.3686640000 42.0558450000  9.5261520000
37        2   4 -0.17999999999999999334 41.7251260000 39.4512830000 13.7617380000
38        2   5  0.05999999999999999778 35.9710480000 41.2914360000 14.8901840000
39        2   5  0.05999999999999999778 35.2513390000 40.5801450000 13.4218770000
40        2   5  0.05999999999999999778 38.2062740000 43.0254370000 11.2851720000
41        2   5  0.05999999999999999778 39.2562240000 41.7769290000 10.5631420000
42        2   5  0.05999999999999999778 40.5391100000 41.0234160000 14.6885580000
43        2   5  0.05999999999999999778 39.9180590000 39.3747500000 14.9641740000
44        2   5  0.05999999999999999778 35.8801070000 39.0453850000 16.0167770000
45        2   5  0.05999999999999999778 34.2570180000 39.5353000000 15.4780590000
46        2   5  0.05999999999999999778 35.1794270000 38.3314640000 14.5474750000
47        2   5  0.05999999999999999778 36.3327770000 42.3242590000  9.7618230000
48        2   5  0.05999999999999999778 37.7654550000 42.7866930000  8.8116510000
49        2   5  0.05999999999999999778 37.3731250000 41.0670550000  9.0540120000
50        2   5  0.05999999999999999778 42.1992030000 40.1156700000 13.0326210000
51        2   5  0.05999999999999999778 42.4044910000 39.3263010000 14.6134500000
52        2   5  0.05999999999999999778 41.5686210000 38.4742680000 13.2926700000
53        3   1  1.23069999999999990514 41.7376380000 52.7323380000 22.4594710000
54        3   2 -0.46110000000000000986 42.1210360000 52.0794830000 23.8755140000
55        3   2 -0.46110000000000000986 42.6692960000 54.0393710000 22.4197900000
56        3   2 -0.46110000000000000986 40.2861260000 53.3538480000 22.7485870000
57        3   3 -0.66610000000000002540 41.8346760000 51.8305940000 21.2816260000
58        3   4  0.15290000000000000813 43.3121800000 51.2524830000 23.9786130000
59        3   4  0.15290000000000000813 42.7422590000 54.8249540000 21.1992640000
60        3   4  0.15290000000000000813 39.1176560000 52.4907020000 22.6878590000
61        3   4 -0.17999999999999999334 43.2667590000 50.5485320000 25.3227300000
62        3   4 -0.17999999999999999334 43.8843340000 55.8107470000 21.3544900000
63        3   4 -0.17999999999999999334 37.8888800000 53.3805840000 22.7152010000
64        3   5  0.05999999999999999778 43.3215240000 50.5399960000 23.1469500000
65        3   5  0.05999999999999999778 44.1909210000 51.9032180000 23.8990240000
66        3   5  0.05999999999999999778 42.9010000000 54.1477020000 20.3529000000
67        3   5  0.05999999999999999778 41.7836750000 55.3416690000 21.0660060000
68        3   5  0.05999999999999999778 39.1674930000 51.8933990000 21.7714500000
69        3   5  0.05999999999999999778 39.1428740000 51.8175640000 23.5528580000
70        3   5  0.05999999999999999778 42.3818730000 49.9073410000 25.3917280000
71        3   5  0.05999999999999999778 44.1599010000 49.9249080000 25.4461450000
72        3   5  0.05999999999999999778 43.2335480000 51.2766570000 26.1394630000
73        3   5  0.05999999999999999778 44.8334600000 55.2813370000 21.4942600000
74        3   5  0.05999999999999999778 43.9612790000 56.4356310000 20.4568860000
75        3   5  0.05999999999999999778 43.7179370000 56.4612630000 22.2203890000
76        3   5  0.05999999999999999778 37.8799210000 54.0516200000 21.8506770000
77        3   5  0.05999999999999999778 36.9831870000 52.7629320000 22.6869880000
78        3   5  0.05999999999999999778 37.8707710000 53.9867590000 23.6269560000
79        4   1  1.23069999999999990514 14.1697640000 21.2003590000 19.7464700000
80        4   2 -0.46110000000000000986 12.9785430000 20.1787830000 19.4062210000
81        4   2 -0.46110000000000000986 13.9402430000 22.3677290000 18.6682940000
82        4   2 -0.46110000000000000986 15.4549370000 20.4384710000 19.1594350000
83        4   3 -0.66610000000000002540 14.2653770000 21.6365760000 21.1643730000
84        4   4  0.15290000000000000813 11.6501200000 20.4316260000 19.9398350000
85        4   4  0.15290000000000000813 14.7272040000 23.5861260000 18.7596580000
86        4   4  0.15290000000000000813 16.0921910000 19.4015550000 19.9548850000
87        4   4 -0.17999999999999999334 10.8176140000 19.1836590000 19.7079430000
88        4   4 -0.17999999999999999334 14.1167830000 24.6000220000 17.8111750000
89        4   4 -0.17999999999999999334 17.4174420000 19.0678190000 19.2954480000
90        4   5  0.05999999999999999778 11.7361290000 20.6704730000 21.0051720000
91        4   5  0.05999999999999999778 11.2271180000 21.2961370000 19.4147970000
92        4   5  0.05999999999999999778 14.7126410000 23.9384320000 19.7968990000
93        4   5  0.05999999999999999778 15.7610040000 23.3486530000 18.4794820000
94        4   5  0.05999999999999999778 16.2276770000 19.7733550000 20.9758980000
95        4   5  0.05999999999999999778 15.4272560000 18.5302050000 19.9790660000
96        4   5  0.05999999999999999778 11.2539780000 18.3269880000 20.2319750000
97        4   5  0.05999999999999999778  9.7997000000 19.3407310000 20.0834710000
98        4   5  0.05999999999999999778 10.7635720000 18.9479450000 18.6403100000
99        4   5  0.05999999999999999778 13.0828220000 24.8218100000 18.0982030000
100       4   5  0.05999999999999999778 14.6949590000 25.5311610000 17.8392150000
101       4   5  0.05999999999999999778 14.1185130000 24.2179690000 16.7842020000
102       4   5  0.05999999999999999778 18.0682120000 19.9474240000 19.2717370000
103       4   5  0.05999999999999999778 17.9228930000 18.2748280000 19.8595880000
104       4   5  0.05999999999999999778 17.2618150000 18.7217720000 18.2682640000
105       5   1  1.23069999999999990514 39.4079250000 49.8698380000 20.4906550000
106       5   2 -0.46110000000000000986 39.4245230000 49.7567020000 22.0923160000
107       5   2 -0.46110000000000000986 40.2480030000 51.2134440000 20.2320280000
108       5   2 -0.46110000000000000986 37.9029890000 50.3433570000 20.1945190000
109       5   3 -0.66610000000000002540 39.8668730000 48.6652400000 19.7502570000
110       5   4  0.15290000000000000813 40.5830260000 49.1779000000 22.7528010000
111       5   4  0.15290000000000000813 40.6101360000 51.5760860000 18.8720670000
112       5   4  0.15290000000000000813 36.8401820000 49.3519820000 20.1539410000
113       5   4 -0.17999999999999999334 40.2096460000 48.9346900000 24.2039030000
114       5   4 -0.17999999999999999334 41.6156960000 52.7087480000 18.9504530000
115       5   4 -0.17999999999999999334 35.6068850000 50.0257450000 19.5816220000
116       5   5  0.05999999999999999778 40.8540470000 48.2480100000 22.2416830000
117       5   5  0.05999999999999999778 41.4162660000 49.8854630000 22.6688820000
118       5   5  0.05999999999999999778 41.0269460000 50.6953390000 18.3713100000
119       5   5  0.05999999999999999778 39.6990100000 51.8863110000 18.3455270000
120       5   5  0.05999999999999999778 37.1673280000 48.5091080000 19.5362050000
121       5   5  0.05999999999999999778 36.6633480000 48.9963710000 21.1758230000
122       5   5  0.05999999999999999778 39.3728970000 48.2318950000 24.2734710000
123       5   5  0.05999999999999999778 41.0659600000 48.5119270000 24.7422720000
124       5   5  0.05999999999999999778 39.9189570000 49.8712430000 24.6904100000
125       5   5  0.05999999999999999778 42.5166050000 52.3873490000 19.4849770000
126       5   5  0.05999999999999999778 41.9020130000 53.0229320000 17.9398080000
127       5   5  0.05999999999999999778 41.1875700000 53.5694960000 19.4762510000
128       5   5  0.05999999999999999778 35.7993220000 50.3817860000 18.5647770000
129       5   5  0.05999999999999999778 34.7753700000 49.3115040000 19.5498060000
130       5   5  0.05999999999999999778 35.3110460000 50.8798770000 20.1996930000
131       6   1  1.23069999999999990514 44.2033130000 30.0423950000 18.4141250000
132       6   2 -0.46110000000000000986 43.8278450000 29.9539390000 19.9728400000
133       6   2 -0.46110000000000000986 42.9972400000 29.2383310000 17.7236430000
134       6   2 -0.46110000000000000986 45.4215740000 29.0040550000 18.2939680000
135       6   3 -0.66610000000000002540 44.4596080000 31.4077070000 17.8848660000
136       6   4  0.15290000000000000813 42.8649590000 30.8914840000 20.5271330000
137       6   4  0.15290000000000000813 42.8786040000 29.2383780000 16.2751710000
138       6   4  0.15290000000000000813 46.7614500000 29.4338690000 18.6600560000
139       6   4 -0.17999999999999999334 42.9234270000 30.7687330000 22.0390110000
140       6   4 -0.17999999999999999334 41.5240960000 28.6529660000 15.9247130000
141       6   4 -0.17999999999999999334 47.7307110000 28.3683080000 18.1829400000
142       6   5  0.05999999999999999778 43.1210880000 31.9019490000 20.1913530000
143       6   5  0.05999999999999999778 41.8712310000 30.6309340000 20.1442590000
144       6   5  0.05999999999999999778 42.9839290000 30.2668410000 15.9127190000
145       6   5  0.05999999999999999778 43.6947820000 28.6313560000 15.8640590000
146       6   5  0.05999999999999999778 46.9606950000 30.4040410000 18.1930140000
147       6   5  0.05999999999999999778 46.7991450000 29.5493230000 19.7496540000
148       6   5  0.05999999999999999778 43.9220110000 31.0252680000 22.4076960000
149       6   5  0.05999999999999999778 42.1970140000 31.4510440000 22.4957570000
150       6   5  0.05999999999999999778 42.6882830000 29.7468200000 22.3532130000
151       6   5  0.05999999999999999778 40.7193270000 29.2645590000 16.3477380000
152       6   5  0.05999999999999999778 41.4031310000 28.6205480000 14.8354890000
153       6   5  0.05999999999999999778 41.4303090000 27.6343830000 16.3175670000
154       6   5  0.05999999999999999778 47.6777850000 28.2586110000 17.0953120000
155       6   5  0.05999999999999999778 48.7548370000 28.6497800000 18.4559030000
156       6   5  0.05999999999999999778 47.4992830000 27.4016040000 18.6422880000
157       7   1  1.23069999999999990514 35.9230720000 39.2036190000 18.6994360000
158       7   2 -0.46110000000000000986 36.3247890000 40.7112450000 18.3198590000
159       7   2 -0.46110000000000000986 35.7373020000 39.2877480000 20.2920150000
160       7   2 -0.46110000000000000986 37.3215320000 38.4284810000 18.5572470000
161       7   3 -0.66610000000000002540 34.7811380000 38.6262620000 17.9427830000
162       7   4  0.15290000000000000813 35.2784470000 41.7078470000 18.1606890000
163       7   4  0.15290000000000000813 35.1970110000 38.1437740000 21.0072460000
164       7   4  0.15290000000000000813 37.7659660000 37.9983470000 17.2413840000
165       7   4 -0.17999999999999999334 35.9081390000 42.9373740000 17.5313950000
166       7   4 -0.17999999999999999334 34.8751310000 38.5943760000 22.4191850000
167       7   4 -0.17999999999999999334 38.9436710000 37.0621460000 17.4390300000
168       7   5  0.05999999999999999778 34.4849650000 41.2906600000 17.5316180000
169       7   5  0.05999999999999999778 34.8651930000 41.9341250000 19.1506370000
170       7   5  0.05999999999999999778 34.3051640000 37.7874020000 20.4801700000
171       7   5  0.05999999999999999778 35.9530950000 37.3488140000 21.0040550000
172       7   5  0.05999999999999999778 36.9328340000 37.5027210000 16.7321640000
173       7   5  0.05999999999999999778 38.0542110000 38.8877350000 16.6687800000
174       7   5  0.05999999999999999778 36.3223130000 42.6965620000 16.5468250000
175       7   5  0.05999999999999999778 35.1515960000 43.7213300000 17.4093360000
176       7   5  0.05999999999999999778 36.7140720000 43.3249490000 18.1627270000
177       7   5  0.05999999999999999778 34.1250230000 39.3930210000 22.4067650000
178       7   5  0.05999999999999999778 34.4790310000 37.7514730000 22.9977290000
179       7   5  0.05999999999999999778 35.7749080000 38.9698180000 22.9192720000
180       7   5  0.05999999999999999778 38.6438860000 36.1828090000 18.0175330000
181       7   5  0.05999999999999999778 39.3187890000 36.7274610000 16.4644310000
182       7   5  0.05999999999999999778 39.7554450000 37.5690770000 17.9711200000
183       8   1  1.23069999999999990514 11.9910120000 28.2870640000 33.5133480000
184       8   2 -0.46110000000000000986 11.2007250000 28.7290870000 32.1872800000
185       8   2 -0.46110000000000000986 11.4921980000 29.3704350000 34.5882380000
186       8   2 -0.46110000000000000986 13.4876410000 28.7765520000 33.2014940000
187       8   3 -0.66610000000000002540 11.8438640000 26.8625140000 33.9119480000
188       8   4  0.15290000000000000813  9.8238360000 28.3004560000 32.0033420000
189       8   4  0.15290000000000000813 11.8565280000 29.2069530000 35.9856220000
190       8   4  0.15290000000000000813 14.3536220000 27.9415990000 32.3848180000
191       8   4 -0.17999999999999999334  9.4356650000 28.6078730000 30.5683930000
192       8   4 -0.17999999999999999334 11.0342540000 30.1925130000 36.7935560000
193       8   4 -0.17999999999999999334 15.7616070000 28.4965670000 32.4948830000
194       8   5  0.05999999999999999778  9.7541160000 27.2297300000 32.2225990000
195       8   5  0.05999999999999999778  9.1944860000 28.8502790000 32.7129820000
196       8   5  0.05999999999999999778 11.6584970000 28.1712790000 36.2828850000
197       8   5  0.05999999999999999778 12.9307370000 29.4061930000 36.0856880000
198       8   5  0.05999999999999999778 14.2930940000 26.9100410000 32.7471500000
199       8   5  0.05999999999999999778 13.9896630000 27.9773790000 31.3512670000
200       8   5  0.05999999999999999778 10.0753460000 28.0579280000 29.8703400000
201       8   5  0.05999999999999999778  8.3943470000 28.3129840000 30.3936390000
202       8   5  0.05999999999999999778  9.5349100000 29.6783270000 30.3619910000
203       8   5  0.05999999999999999778  9.9642270000 29.9865830000 36.6783000000
204       8   5  0.05999999999999999778 11.2936860000 30.1110680000 37.8557030000
205       8   5  0.05999999999999999778 11.2285310000 31.2192120000 36.4637310000
206       8   5  0.05999999999999999778 16.1095530000 28.4613740000 33.5319300000
207       8   5  0.05999999999999999778 16.4442710000 27.9006390000 31.8772990000
208       8   5  0.05999999999999999778 15.7955450000 29.5356620000 32.1510740000
209       9   1  1.23069999999999990514  7.1266540000 48.1089510000 14.4124190000
210       9   2 -0.46110000000000000986  8.0723950000 46.9448980000 13.8388800000
211       9   2 -0.46110000000000000986  8.0081910000 49.4261030000 14.1557130000
212       9   2 -0.46110000000000000986  7.2601490000 47.9102880000 15.9997000000
213       9   3 -0.66610000000000002540  5.7403410000 48.1416810000 13.8767480000
214       9   4  0.15290000000000000813  8.0844570000 46.6771320000 12.4100560000
215       9   4  0.15290000000000000813  7.4183760000 50.7339660000 14.3875720000
216       9   4  0.15290000000000000813  6.4495380000 46.9005160000 16.6609860000
217       9   4 -0.17999999999999999334  8.8240020000 45.3690700000 12.1948680000
218       9   4 -0.17999999999999999334  8.3599150000 51.7722680000 13.8082180000
219       9   4 -0.17999999999999999334  6.5649920000 47.1278500000 18.1568190000
220       9   5  0.05999999999999999778  7.0511370000 46.6234250000 12.0512320000
221       9   5  0.05999999999999999778  8.5921580000 47.5092270000 11.9082260000
222       9   5  0.05999999999999999778  6.4329510000 50.7661350000 13.9099690000
223       9   5  0.05999999999999999778  7.2934920000 50.8671140000 15.4693810000
224       9   5  0.05999999999999999778  5.4154580000 46.9950040000 16.3134100000
225       9   5  0.05999999999999999778  6.8315750000 45.9131370000 16.3761990000
226       9   5  0.05999999999999999778  8.3106130000 44.5480350000 12.7059880000
227       9   5  0.05999999999999999778  8.8691060000 45.1393440000 11.1238710000
228       9   5  0.05999999999999999778  9.8460680000 45.4347880000 12.5813700000
229       9   5  0.05999999999999999778  8.4811440000 51.6226900000 12.7295250000
230       9   5  0.05999999999999999778  7.9561910000 52.7772610000 13.9787750000
231       9   5  0.05999999999999999778  9.3459000000 51.7063760000 14.2816440000
232       9   5  0.05999999999999999778  6.1869200000 48.1189610000 18.4261340000
233       9   5  0.05999999999999999778  5.9776720000 46.3727390000 18.6929460000
234       9   5  0.05999999999999999778  7.6086790000 47.0535100000 18.4797220000
235      10   1  1.23069999999999990514 54.1062020000 38.8907290000 31.9171220000
236      10   2 -0.46110000000000000986 54.6349030000 37.8781970000 30.7885620000
237      10   2 -0.46110000000000000986 53.5517090000 37.8905460000 33.0440940000
238      10   2 -0.46110000000000000986 52.7532690000 39.4572500000 31.2649140000
239      10   3 -0.66610000000000002540 55.0811900000 39.9130040000 32.3799730000
240      10   4  0.15290000000000000813 55.9529420000 37.2812240000 30.9291990000
241      10   4  0.15290000000000000813 53.1349070000 38.4265060000 34.3290720000
242      10   4  0.15290000000000000813 52.8286110000 40.5425620000 30.3003150000
243      10   4 -0.17999999999999999334 56.2988470000 36.6171570000 29.6087340000
244      10   4 -0.17999999999999999334 52.9298160000 37.2556360000 35.2709960000
245      10   4 -0.17999999999999999334 51.4181710000 41.0557340000 30.0770690000
246      10   5  0.05999999999999999778 56.6710330000 38.0660040000 31.1896870000
247      10   5  0.05999999999999999778 55.9142480000 36.5498520000 31.7450260000
248      10   5  0.05999999999999999778 53.9084930000 39.1114820000 34.6931780000
249      10   5  0.05999999999999999778 52.2041130000 38.9880470000 34.1809810000
250      10   5  0.05999999999999999778 53.4874660000 41.3220510000 30.6970090000
251      10   5  0.05999999999999999778 53.2618500000 40.1485340000 29.3734820000
252      10   5  0.05999999999999999778 56.3279580000 37.3567990000 28.8018940000
253      10   5  0.05999999999999999778 57.2829300000 36.1392310000 29.6795090000
254      10   5  0.05999999999999999778 55.5570930000 35.8533960000 29.3541900000
255      10   5  0.05999999999999999778 53.8648260000 36.6999060000 35.4035490000
256      10   5  0.05999999999999999778 52.5973910000 37.6195600000 36.2503560000
257      10   5  0.05999999999999999778 52.1709580000 36.5708280000 34.8762630000
258      10   5  0.05999999999999999778 50.9955250000 41.4393560000 31.0108650000
259      10   5  0.05999999999999999778 51.4314860000 41.8679440000 29.3403820000
260      10   5  0.05999999999999999778 50.7701970000 40.2556550000 29.7041380000
261      11   1  1.23069999999999990514 24.6896880000 30.9290450000 31.5427800000
262      11   2 -0.46110000000000000986 23.1888320000 30.5647990000 31.9822650000
263      11   2 -0.46110000000000000986 25.1586620000 31.9240820000 32.7123370000
264      11   2 -0.46110000000000000986 24.4541760000 31.9323830000 30.3120910000
265      11   3 -0.66610000000000002540 25.5861660000 29.7736520000 31.2758150000
266      11   4  0.15290000000000000813 22.9704780000 29.5255870000 32.9751100000
267      11   4  0.15290000000000000813 26.5468080000 32.3504910000 32.7703870000
268      11   4  0.15290000000000000813 24.1802820000 31.3874050000 28.9922380000
269      11   4 -0.17999999999999999334 21.4880240000 29.1991240000 32.9788150000
270      11   4 -0.17999999999999999334 26.7606760000 33.0399330000 34.1042350000
271      11   4 -0.17999999999999999334 24.2871180000 32.5262730000 27.9951960000
272      11   5  0.05999999999999999778 23.5780460000 28.6527750000 32.7134800000
273      11   5  0.05999999999999999778 23.2970740000 29.9067160000 33.9498160000
274      11   5  0.05999999999999999778 27.1907920000 31.4713100000 32.6584580000
275      11   5  0.05999999999999999778 26.7308450000 33.0347580000 31.9328050000
276      11   5  0.05999999999999999778 24.9035540000 30.5926850000 28.7816290000
277      11   5  0.05999999999999999778 23.1718750000 30.9572740000 29.0010190000
278      11   5  0.05999999999999999778 21.1736220000 28.8258900000 31.9986330000
279      11   5  0.05999999999999999778 21.2791120000 28.4277190000 33.7292360000
280      11   5  0.05999999999999999778 20.8969240000 30.0887760000 33.2184860000
281      11   5  0.05999999999999999778 26.5661710000 32.3475780000 34.9309530000
282      11   5  0.05999999999999999778 27.7962080000 33.3922470000 34.1793450000
283      11   5  0.05999999999999999778 26.0901160000 33.9005360000 34.2059870000
284      11   5  0.05999999999999999778 25.2959030000 32.9506310000 28.0017620000
285      11   5  0.05999999999999999778 24.0705130000 32.1567120000 26.9857030000
286      11   5  0.05999999999999999778 23.5734210000 33.3205770000 28.2376670000
287      12   1  1.23069999999999990514  9.3378350000 10.0966390000 27.9287390000
288      12   2 -0.46110000000000000986 10.9031170000  9.7435050000 27.9885770000
289      12   2 -0.46110000000000000986  9.0921280000 10.8115430000 29.3452260000
290      12   2 -0.46110000000000000986  8.6525360000  8.6612480000 28.1450000000
291      12   3 -0.66610000000000002540  8.8892920000 10.8563370000 26.7322670000
292      12   4  0.15290000000000000813 11.8773850000 10.7702200000 27.6568500000
293      12   4  0.15290000000000000813  7.8104770000 11.4429980000 29.6112710000
294      12   4  0.15290000000000000813  8.5118600000  7.7619590000 27.0111930000
295      12   4 -0.17999999999999999334 13.2282490000 10.0922360000 27.5162710000
296      12   4 -0.17999999999999999334  7.9556680000 12.2615920000 30.8797520000
297      12   4 -0.17999999999999999334  7.5931260000  6.6310160000 27.4347750000
298      12   5  0.05999999999999999778 11.5709400000 11.2619720000 26.7275170000
299      12   5  0.05999999999999999778 11.8854410000 11.5110150000 28.4650170000
300      12   5  0.05999999999999999778  7.5397870000 12.0670940000 28.7525320000
301      12   5  0.05999999999999999778  7.0571500000 10.6541220000 29.7287820000
302      12   5  0.05999999999999999778  8.1031300000  8.3231210000 26.1643770000
303      12   5  0.05999999999999999778  9.5074240000  7.3890260000 26.7433380000
304      12   5  0.05999999999999999778 13.2049090000  9.3509270000 26.7107730000
305      12   5  0.05999999999999999778 13.9961240000 10.8385710000 27.2813390000
306      12   5  0.05999999999999999778 13.5056500000  9.5866200000 28.4467130000
307      12   5  0.05999999999999999778  8.7159500000 13.0400150000 30.7506060000
308      12   5  0.05999999999999999778  7.0009590000 12.7422230000 31.1239220000
309      12   5  0.05999999999999999778  8.2507360000 11.6229420000 31.7198120000
310      12   5  0.05999999999999999778  6.6058390000  7.0177380000 27.7058480000
311      12   5  0.05999999999999999778  7.4746370000  5.9202890000 26.6080960000
312      12   5  0.05999999999999999778  8.0076130000  6.0986430000 28.2972450000
313      13   1  1.23069999999999990514  2.1291080000 32.1407230000 23.9743370000
314      13   2 -0.46110000000000000986  1.7966340000 33.7001030000 23.7841050000
315      13   2 -0.46110000000000000986  3.4065120000 32.1774760000 24.9463380000
316      13   2 -0.46110000000000000986  2.7840570000 31.7533990000 22.5609110000
317      13   3 -0.66610000000000002540  0.9980870000 31.2859470000 24.4215800000
318      13   4  0.15290000000000000813  1.0220020000 34.3917660000 24.8014190000
319      13   4  0.15290000000000000813  3.9146740000 30.9342710000 25.5016400000
320      13   4  0.15290000000000000813  1.9166740000 31.4499440000 21.4341500000
321      13   4 -0.17999999999999999334  0.6201880000 35.7409290000 24.2334700000
322      13   4 -0.17999999999999999334  4.9217640000 31.2894130000 26.5786090000
323      13   4 -0.17999999999999999334  2.7801740000 30.8506910000 20.3397140000
324      13   5  0.05999999999999999778  0.1488030000 33.7821280000 25.0568670000
325      13   5  0.05999999999999999778  1.6491990000 34.5056450000 25.6934010000
326      13   5  0.05999999999999999778  3.0741940000 30.3581600000 25.9039970000
327      13   5  0.05999999999999999778  4.3819560000 30.3619430000 24.6906390000
328      13   5  0.05999999999999999778  1.1383400000 30.7545460000 21.7653270000
329      13   5  0.05999999999999999778  1.4435590000 32.3823480000 21.1043640000