Generated by pymatgen.io.lammps.data.LammpsData

17462  atoms
16483  bonds
28448  angles
27737  dihedrals
 1240  impropers

   18  atom types
   17  bond types
   26  angle types
   23  dihedral types
    2  improper types

-0.2500000000 60.2500000000  xlo xhi
-0.2500000000 60.2500000000  ylo yhi
-0.2500000000 60.2500000000  zlo zhi

Masses

1   14.01000
2   32.06000
3   16.00000
4   12.01000
5   19.00000
6   15.99940
7   14.00670
8   12.01070
9   12.01070
10   1.00794
11   1.00794
12  16.00000
13  12.01000
14  12.01000
15   1.00800
16  32.06000
17  32.06000
18   6.94100

Pair Coeffs

1       0.17  3.249999
2       0.25  3.549340
3       0.21  2.959566
4      0.066  3.499450
5      0.053  2.948875
6     0.2100  2.960000
7     0.1700  3.250000
8     0.1050  3.750000
9     0.0660  3.500000
10    0.0300  0.500000
11    0.0300  2.500000
12      0.14  2.900000
13     0.066  3.500000
14     0.066  3.500000
15      0.03  2.500000
16  0.344001  3.590322
17  0.344001  3.590322
18  0.165057  1.506000

Bond Coeffs

1   441.80  1.323
2   235.40  1.818
3   637.10  1.442
4   372.00  1.570
5   570.00  1.229
6   490.00  1.335
7   337.00  1.449
8   434.00  1.010
9   317.00  1.522
10  340.00  1.090
11  320.00  1.410
12  320.00  1.380
13  268.00  1.529
14  340.00  1.090
15  340.00  1.090
16  157.87  2.133
17  154.36  2.117


Angle Coeffs

1    93.30  107.10
2    82.90  111.80
3   104.00  102.60
4   115.80  118.50
5    94.30  113.60
6    97.50  100.20
7    80.20  125.60
8    50.00  121.90
9    35.00  119.80
10   38.00  118.40
11   80.00  122.90
12   80.00  120.40
13   70.00  116.60
14   35.00  109.50
15   33.00  107.80
16   35.00  109.50
17   60.00  109.50
18   50.00  109.50
19   35.00  109.50
20   37.50  110.70
21   33.00  107.80
22   92.60  111.55
23   35.00  109.50
24   33.00  109.50
25   73.56  112.74
26   73.56  112.74


Dihedral Coeffs

1 1 0.173400000 3 0.000000000
2 1 0.158000000 3 0.000000000
3 1 -0.001800000 3 0.000000000
4 3 3.916460000 1 0.000000000 -1.245000000 2 180.000000000 -0.381800000 3 0.000000000
5 1 3.044500000 2 180.000000000
6 2 1.498500000 1 0.000000000 1.539500000 2 180.000000000
7 1 2.450000000 2 180.000000000
8 1 2.450000000 2 180.000000000
9 1 0.000000000 1 0.000000000
10 1 0.000000000 1 0.000000000
11 1 0.000000000 1 0.000000000
12 1 0.000000000 1 0.000000000
13 3 0.062500000 1 0.000000000 -0.011000000 2 180.000000000 0.280500000 3 0.000000000
14 3 0.062500000 1 0.000000000 -0.011000000 2 180.000000000 0.280500000 3 0.000000000
15 1 0.370500000 3 0.000000000
16 1 0.370500000 3 0.000000000
17 3 -0.533500000 1 0.000000000 -0.783500000 2 180.000000000 0.337500000 3 0.000000000
18 1 0.370500000 3 0.000000000
19 3 1.119000000 1 0.000000000 -1.163500000 2 180.000000000 -0.341500000 3 0.000000000
20 1 0.234000000 3 0.000000000
21 1 0.150000000 3 0.000000000
22 4 5.431700000 1 0.000000000 -3.590000000 2 180.000000000 1.055600000 3 0.000000000 0.058320000 4 180.000000000
23 4 5.431700000 1 0.000000000 -3.590000000 2 180.000000000 1.055600000 3 0.000000000 0.058320000 4 180.000000000


Improper Coeffs

1 1.000000000 -1 2
2 10.500000000 -1 2


Atoms

1         1   1 -0.47025293908086934769 53.0148690000 39.9353430000 43.4133810000
2         1   2  0.72675454221588897674 51.7387370000 40.4728180000 42.5661520000
3         1   3 -0.37762736017100112518 51.4575920000 39.6978250000 41.3489730000
4         1   3 -0.37762736017100112518 50.5983350000 40.9685020000 43.3534930000
5         1   4  0.24937655860349128289 52.5909950000 42.0347800000 41.9367240000
6         1   5 -0.11400071250445316384 53.6906560000 41.7623670000 41.2136300000
7         1   5 -0.11400071250445316384 52.9364720000 42.8580730000 42.9413220000
8         1   5 -0.11400071250445316384 51.7268400000 42.6991670000 41.1386620000
9         1   2  0.72675454221588897674 52.9266750000 38.7819560000 44.5281290000
10        1   3 -0.37762736017100112518 54.2412070000 38.1392140000 44.6505240000
11        1   3 -0.37762736017100112518 51.7119400000 37.9546040000 44.5005650000
12        1   4  0.24937655860349128289 52.7892030000 39.7377710000 46.1547430000
13        1   5 -0.11400071250445316384 53.8294020000 40.5788410000 46.3179930000
14        1   5 -0.11400071250445316384 51.6574680000 40.4548540000 46.2221840000
15        1   5 -0.11400071250445316384 52.7952960000 38.8715790000 47.1926070000
16        2   1 -0.47025293908086934769 13.0000550000 37.0197670000 48.9582110000
17        2   2  0.72675454221588897674 13.7039760000 36.3752050000 50.2713080000
18        2   3 -0.37762736017100112518 13.7922420000 34.9079950000 50.2451300000
19        2   3 -0.37762736017100112518 14.8328290000 37.1294470000 50.8395800000
20        2   4  0.24937655860349128289 12.2634420000 36.7339340000 51.4368230000
21        2   5 -0.11400071250445316384 11.1246430000 36.1394270000 51.0418220000
22        2   5 -0.11400071250445316384 12.0335420000 38.0523720000 51.5603090000
23        2   5 -0.11400071250445316384 12.5761230000 36.2541980000 52.6604090000
24        2   2  0.72675454221588897674 13.7914140000 37.3900790000 47.6101150000
25        2   3 -0.37762736017100112518 12.8481460000 37.3673300000 46.4850290000
26        2   3 -0.37762736017100112518 15.1201840000 36.7800830000 47.4580360000
27        2   4  0.24937655860349128289 14.1571980000 39.2367180000 47.7958090000
28        2   5 -0.11400071250445316384 13.0249230000 39.9443590000 47.9781750000
29        2   5 -0.11400071250445316384 14.9763050000 39.4854220000 48.8286650000
30        2   5 -0.11400071250445316384 14.7522790000 39.6971900000 46.6727200000
31        3   1 -0.47025293908086934769 22.9992930000  9.8224270000 39.0841770000
32        3   2  0.72675454221588897674 23.6740250000 10.5110070000 37.7781200000
33        3   3 -0.37762736017100112518 25.0436070000 10.0549310000 37.4998700000
34        3   3 -0.37762736017100112518 22.7776870000 10.7562070000 36.6368140000
35        3   4  0.24937655860349128289 23.9010620000 12.2082560000 38.5718750000
36        3   5 -0.11400071250445316384 24.6790740000 12.1617640000 39.6668020000
37        3   5 -0.11400071250445316384 22.7258320000 12.7662320000 38.9093370000
38        3   5 -0.11400071250445316384 24.5001780000 13.0212340000 37.6745430000
39        3   2  0.72675454221588897674 22.2071350000  8.4252680000 39.0499270000
40        3   3 -0.37762736017100112518 22.2608740000  7.8167910000 40.3852020000
41        3   3 -0.37762736017100112518 22.4295670000  7.5906280000 37.8604930000
42        3   4  0.24937655860349128289 20.3922100000  8.9402350000 38.9113150000
43        3   5 -0.11400071250445316384 20.0334100000  9.7484700000 39.9282130000
44        3   5 -0.11400071250445316384 20.1377280000  9.5794720000 37.7597090000
45        3   5 -0.11400071250445316384 19.6036240000  7.8433670000 38.9612930000
46        4   1 -0.47025293908086934769 40.8579070000 59.2283500000 56.5798780000
47        4   2  0.72675454221588897674 42.3689150000 58.8807490000 56.0990230000
48        4   3 -0.37762736017100112518 43.3127970000 60.0000000000 56.2314830000
49        4   3 -0.37762736017100112518 42.8519140000 57.5243430000 56.4039810000
50        4   4  0.24937655860349128289 41.9603060000 58.8322140000 54.2570320000
51        4   5 -0.11400071250445316384 41.4667750000 59.9999830000 53.8108580000
52        4   5 -0.11400071250445316384 41.0807610000 57.8593970000 53.9630790000
53        4   5 -0.11400071250445316384 43.0984250000 58.5780550000 53.5750010000
54        4   2  0.72675454221588897674 40.3474280000 59.0878490000 58.0965890000
55        4   3 -0.37762736017100112518 39.2152890000 60.0000000000 58.3023370000
56        4   3 -0.37762736017100112518 41.3975930000 58.9890410000 59.1204270000
57        4   4  0.24937655860349128289 39.5133070000 57.3904690000 58.1352770000
58        4   5 -0.11400071250445316384 38.5308160000 57.3065310000 57.2167310000
59        4   5 -0.11400071250445316384 40.3850440000 56.3967860000 57.9066960000
60        4   5 -0.11400071250445316384 38.9575080000 57.1849560000 59.3503240000
61        5   1 -0.47025293908086934769 10.9631470000  2.4633920000 39.1362000000
62        5   2  0.72675454221588897674  9.8804970000  2.7585580000 37.9631970000
63        5   3 -0.37762736017100112518  8.5033090000  2.9309250000 38.4477850000
64        5   3 -0.37762736017100112518 10.3394080000  3.6117160000 36.8552040000
65        5   4  0.24937655860349128289  9.9087150000  1.0097200000 37.2539590000
66        5   5 -0.11400071250445316384  9.5429870000  0.0845090000 38.1575940000
67        5   5 -0.11400071250445316384 11.1211980000  0.6808740000 36.7763310000
68        5   5 -0.11400071250445316384  9.0324370000  0.9524240000 36.2273480000
69        5   2  0.72675454221588897674 11.7175060000  3.6129980000 39.9669180000
70        5   3 -0.37762736017100112518 12.1224810000  3.0688830000 41.2692340000
71        5   3 -0.37762736017100112518 11.1212900000  4.9545770000 39.8924490000
72        5   4  0.24937655860349128289 13.3738720000  3.8010810000 39.0728090000
73        5   5 -0.11400071250445316384 14.0411630000  2.6311840000 39.0267140000
74        5   5 -0.11400071250445316384 13.2191040000  4.2436530000 37.8159250000
75        5   5 -0.11400071250445316384 14.1488830000  4.6895600000 39.7342090000
76        6   1 -0.47025293908086934769 58.5610730000 30.3870180000 35.8385490000
77        6   2  0.72675454221588897674 57.5179260000 31.6131360000 35.6295760000
78        6   3 -0.37762736017100112518 56.7559840000 31.5448800000 34.3742010000
79        6   3 -0.37762736017100112518 56.8259050000 32.0904450000 36.8376360000
80        6   4  0.24937655860349128289 58.8425740000 32.9164630000 35.2995770000
81        6   5 -0.11400071250445316384 59.6018940000 32.6162420000 34.2320430000
82        6   5 -0.11400071250445316384 59.6502190000 33.0914000000 36.3595240000
83        6   5 -0.11400071250445316384 58.2287430000 34.0939510000 35.0509590000
84        6   2  0.72675454221588897674 58.1652180000 28.9796400000 36.5043780000
85        6   3 -0.37762736017100112518 59.0887010000 27.9476470000 36.0162600000
86        6   3 -0.37762736017100112518 56.7263130000 28.6896810000 36.5839510000
87        6   4  0.24937655860349128289 58.6908790000 29.1729070000 38.3112220000
88        6   5 -0.11400071250445316384 60.0000000000 29.4768620000 38.4105970000
89        6   5 -0.11400071250445316384 57.9909010000 30.1299580000 38.9386500000
90        6   5 -0.11400071250445316384 58.4886420000 28.0099590000 38.9701130000
91        7   1 -0.47025293908086934769 40.3524160000 23.6019050000 56.5534270000
92        7   2  0.72675454221588897674 41.7022540000 24.4485410000 56.8638050000
93        7   3 -0.37762736017100112518 42.1774500000 24.3324850000 58.2501320000
94        7   3 -0.37762736017100112518 42.7043980000 24.4913200000 55.7867720000
95        7   4  0.24937655860349128289 40.8676650000 26.1401070000 56.7981050000
96        7   5 -0.11400071250445316384 39.8868800000 26.2631340000 57.7087380000
97        7   5 -0.11400071250445316384 40.3544890000 26.4002040000 55.5834520000
98        7   5 -0.11400071250445316384 41.7971210000 27.0840290000 57.0630610000
99        7   2  0.72675454221588897674 40.3472830000 22.0578970000 56.1098540000
100       7   3 -0.37762736017100112518 39.0598410000 21.4605820000 56.4864160000
101       7   3 -0.37762736017100112518 41.5926920000 21.3161160000 56.3539210000
102       7   4  0.24937655860349128289 40.2241450000 22.1319450000 54.2236650000
103       7   5 -0.11400071250445316384 39.1330410000 22.8183160000 53.8306640000
104       7   5 -0.11400071250445316384 41.3020840000 22.7091980000 53.6719340000
105       7   5 -0.11400071250445316384 40.1222450000 20.8793780000 53.7254920000
106       8   1 -0.47025293908086934769 45.3300410000 35.3630130000 42.7985150000
107       8   2  0.72675454221588897674 46.2731060000 34.4035100000 41.8901260000
108       8   3 -0.37762736017100112518 45.9571730000 32.9721580000 42.0023830000
109       8   3 -0.37762736017100112518 46.6548030000 34.9296180000 40.5696550000
110       8   4  0.24937655860349128289 47.8195320000 34.6231370000 42.9496460000
111       8   5 -0.11400071250445316384 47.6338540000 34.2171420000 44.2173290000
112       8   5 -0.11400071250445316384 48.2374980000 35.9003540000 42.9696540000
113       8   5 -0.11400071250445316384 48.8100240000 33.8741320000 42.4176740000
114       8   2  0.72675454221588897674 43.9132630000 35.9437440000 42.3124770000
115       8   3 -0.37762736017100112518 43.0889770000 36.2325280000 43.4928360000
116       8   3 -0.37762736017100112518 43.3107070000 35.2755730000 41.1500100000
117       8   4  0.24937655860349128289 44.3311640000 37.6753090000 41.6757700000
118       8   5 -0.11400071250445316384 44.9289620000 38.4166670000 42.6292320000
119       8   5 -0.11400071250445316384 45.1417320000 37.6359370000 40.6075890000
120       8   5 -0.11400071250445316384 43.1953840000 38.3123120000 41.3128410000
121       9   1 -0.47025293908086934769 35.3574330000  7.9988190000  5.5730510000
122       9   2  0.72675454221588897674 34.0106420000  7.6672680000  4.7295950000
123       9   3 -0.37762736017100112518 32.7637780000  7.9539580000  5.4536940000
124       9   3 -0.37762736017100112518 34.0593500000  7.9571420000  3.2874700000
125       9   4  0.24937655860349128289 34.1917860000  5.7918030000  4.8394520000
126       9   5 -0.11400071250445316384 34.2007320000  5.3515310000  6.1092590000
127       9   5 -0.11400071250445316384 35.3096660000  5.3586770000  4.2318940000
128       9   5 -0.11400071250445316384 33.1371560000  5.2248230000  4.2138590000
129       9   2  0.72675454221588897674 36.0596700000  9.4433160000  5.6052110000
130       9   3 -0.37762736017100112518 36.8280260000  9.5694720000  6.8501230000
131       9   3 -0.37762736017100112518 35.2344600000 10.5683050000  5.1423060000
132       9   4  0.24937655860349128289 37.4217490000  9.3107170000  4.2992580000
133       9   5 -0.11400071250445316384 38.2586410000  8.2888200000  4.5664660000
134       9   5 -0.11400071250445316384 36.9213790000  9.1299610000  3.0677790000
135       9   5 -0.11400071250445316384 38.1530010000 10.4476590000  4.2883990000
136      10   1 -0.47025293908086934769  6.8259140000 36.8246610000 51.1761320000
137      10   2  0.72675454221588897674  7.6728150000 37.5238540000 52.3715730000
138      10   3 -0.37762736017100112518  6.9878900000 38.6586680000 53.0073860000
139      10   3 -0.37762736017100112518  8.4590980000 36.6193340000 53.2258130000
140      10   4  0.24937655860349128289  8.9487340000 38.3272710000 51.2363180000
141      10   5 -0.11400071250445316384  8.3891600000 39.1729280000 50.3542360000
142      10   5 -0.11400071250445316384  9.6612690000 37.4135030000 50.5553590000
143      10   5 -0.11400071250445316384  9.8098820000 39.0364870000 51.9982310000
144      10   2  0.72675454221588897674  5.7472150000 35.6571620000 51.4087180000
145      10   3 -0.37762736017100112518  4.7817860000 35.6762500000 50.3025190000
146      10   3 -0.37762736017100112518  5.2692290000 35.4909420000 52.7888460000
147      10   4  0.24937655860349128289  6.7208150000 34.0709730000 51.0703940000
148      10   5 -0.11400071250445316384  7.2593390000 34.0809230000 49.8350990000
149      10   5 -0.11400071250445316384  7.7115460000 33.8906920000 51.9566950000
150      10   5 -0.11400071250445316384  5.8935420000 33.0046770000 51.1486280000
151      11   1 -0.47025293908086934769 23.1045180000 44.9998260000 11.0099430000
152      11   2  0.72675454221588897674 23.0529190000 44.0004860000  9.7317230000
153      11   3 -0.37762736017100112518 21.7594580000 43.9866320000  9.0331890000
154      11   3 -0.37762736017100112518 24.2801660000 43.9151140000  8.9238240000
155      11   4  0.24937655860349128289 23.0483860000 42.4118700000 10.7508050000
156      11   5 -0.11400071250445316384 21.9952430000 42.3399250000 11.5826960000
157      11   5 -0.11400071250445316384 24.1721310000 42.2768330000 11.4756110000
158      11   5 -0.11400071250445316384 22.9766830000 41.3624340000  9.9030900000
159      11   2  0.72675454221588897674 23.4796080000 46.5588040000 10.9117700000
160      11   3 -0.37762736017100112518 22.8741670000 47.2647070000 12.0480950000
161      11   3 -0.37762736017100112518 23.4132160000 47.1512780000  9.5681110000
162      11   4  0.24937655860349128289 25.3217040000 46.6062610000 11.3393020000
163      11   5 -0.11400071250445316384 25.5579380000 46.0612300000 12.5489290000
164      11   5 -0.11400071250445316384 26.0647600000 45.9521950000 10.4339600000
165      11   5 -0.11400071250445316384 25.7463660000 47.8891080000 11.3774240000
166      12   1 -0.47025293908086934769 19.6403640000 20.9762310000 24.9110470000
167      12   2  0.72675454221588897674 19.0244230000 22.4539130000 25.1798650000
168      12   3 -0.37762736017100112518 18.5084060000 22.6497270000 26.5424240000
169      12   3 -0.37762736017100112518 19.7228290000 23.5764200000 24.5330800000
170      12   4  0.24937655860349128289 17.4779910000 22.1933650000 24.1296680000
171      12   5 -0.11400071250445316384 16.7284950000 21.1671710000 24.5672860000
172      12   5 -0.11400071250445316384 17.7786590000 21.9788950000 22.8373890000
173      12   5 -0.11400071250445316384 16.7242610000 23.3125030000 24.1967190000
174      12   2  0.72675454221588897674 21.1631180000 20.5714760000 25.2243090000
175      12   3 -0.37762736017100112518 21.2327490000 19.1213240000 25.4440890000
176      12   3 -0.37762736017100112518 21.8973460000 21.4789020000 26.1178080000
177      12   4  0.24937655860349128289 22.0340700000 20.7715790000 23.5570490000
178      12   5 -0.11400071250445316384 21.4509630000 20.0155330000 22.6060270000
179      12   5 -0.11400071250445316384 22.0307720000 22.0459520000 23.1380700000
180      12   5 -0.11400071250445316384 23.3211710000 20.3728670000 23.6660740000
181      13   1 -0.47025293908086934769  9.6387120000 48.9477330000 21.1646370000
182      13   2  0.72675454221588897674 10.8553540000 49.8457330000 21.7550340000
183      13   3 -0.37762736017100112518 10.4439800000 51.1746970000 22.2302260000
184      13   3 -0.37762736017100112518 11.8854820000 49.1228160000 22.5181550000
185      13   4  0.24937655860349128289 11.6573490000 50.1785150000 20.0792330000
186      13   5 -0.11400071250445316384 10.8294040000 50.8136020000 19.2321790000
187      13   5 -0.11400071250445316384 12.0801490000 49.0464230000 19.4910240000
188      13   5 -0.11400071250445316384 12.7354130000 50.9693560000 20.2726890000
189      13   2  0.72675454221588897674  8.7026620000 48.0052220000 22.0680890000
190      13   3 -0.37762736017100112518  7.4108400000 47.8317450000 21.3919290000
191      13   3 -0.37762736017100112518  8.7378130000 48.2635170000 23.5147760000
192      13   4  0.24937655860349128289  9.4858260000 46.2922560000 21.8927110000
193      13   5 -0.11400071250445316384  9.5571590000 45.9163150000 20.6005640000
194      13   5 -0.11400071250445316384 10.7232360000 46.2501410000 22.4090650000
195      13   5 -0.11400071250445316384  8.7317680000 45.3790340000 22.5445620000
196      14   1 -0.47025293908086934769 37.0516470000 22.7291580000 36.4616840000
197      14   2  0.72675454221588897674 35.7119000000 23.3468460000 37.1389800000
198      14   3 -0.37762736017100112518 34.5815430000 22.4086410000 37.1959620000
199      14   3 -0.37762736017100112518 35.9194330000 24.2551780000 38.2782730000
200      14   4  0.24937655860349128289 35.2959690000 24.4893270000 35.6953770000
201      14   5 -0.11400071250445316384 35.1049730000 23.8161470000 34.5479110000
202      14   5 -0.11400071250445316384 36.2526480000 25.4113130000 35.4926720000
203      14   5 -0.11400071250445316384 34.1496780000 25.1425240000 35.9859390000
204      14   2  0.72675454221588897674 38.1652780000 21.9038100000 37.2736980000
205      14   3 -0.37762736017100112518 38.8723070000 21.0171020000 36.3409870000
206      14   3 -0.37762736017100112518 37.7541940000 21.3958670000 38.5904580000
207      14   4  0.24937655860349128289 39.4816150000 23.2010190000 37.6772610000
208      14   5 -0.11400071250445316384 39.9454770000 23.7924770000 36.5587480000
209      14   5 -0.11400071250445316384 39.0113560000 24.1577420000 38.4915820000
210      14   5 -0.11400071250445316384 40.5294000000 22.6088150000 38.2928310000
211      15   1 -0.47025293908086934769 52.9216850000 35.5454080000 41.3415400000
212      15   2  0.72675454221588897674 52.7719470000 37.1584570000 41.2374140000
213      15   3 -0.37762736017100112518 52.5729860000 37.6550930000 39.8681260000
214      15   3 -0.37762736017100112518 52.0337120000 37.8142110000 42.3287990000
215      15   4  0.24937655860349128289 54.5855840000 37.5274920000 41.6072580000
216      15   5 -0.11400071250445316384 55.4155830000 36.9657830000 40.7117620000
217      15   5 -0.11400071250445316384 54.9422390000 37.1132160000 42.8350840000
218      15   5 -0.11400071250445316384 54.7670770000 38.8651890000 41.5552580000
219      15   2  0.72675454221588897674 51.6772290000 34.5385990000 41.4772060000
220      15   3 -0.37762736017100112518 52.0724990000 33.2233370000 40.9576510000
221      15   3 -0.37762736017100112518 50.3617840000 35.0937280000 41.1275070000
222      15   4  0.24937655860349128289 51.5565710000 34.2204020000 43.3379980000
223      15   5 -0.11400071250445316384 52.7129310000 33.7308930000 43.8271540000
224      15   5 -0.11400071250445316384 51.2530590000 35.3351050000 44.0198330000
225      15   5 -0.11400071250445316384 50.5893800000 33.3077500000 43.5810900000
226      16   1 -0.47025293908086934769 39.7630230000 24.1683260000 45.0796940000
227      16   2  0.72675454221588897674 39.4552610000 25.3702460000 46.1265280000
228      16   3 -0.37762736017100112518 40.3670940000 25.4098980000 47.2789900000
229      16   3 -0.37762736017100112518 39.0212640000 26.6480910000 45.5392600000
230      16   4  0.24937655860349128289 37.8719810000 24.6050450000 46.8120500000
231      16   5 -0.11400071250445316384 38.0837800000 23.3983390000 47.3646160000
232      16   5 -0.11400071250445316384 36.9248490000 24.4789920000 45.8668330000
233      16   5 -0.11400071250445316384 37.3872890000 25.4199120000 47.7744130000
234      16   2  0.72675454221588897674 40.8101580000 24.2847800000 43.8669740000
235      16   3 -0.37762736017100112518 41.2851500000 22.9394590000 43.5197200000
236      16   3 -0.37762736017100112518 41.7691440000 25.3956360000 43.9518150000
237      16   4  0.24937655860349128289 39.7289250000 24.7298480000 42.3799620000
238      16   5 -0.11400071250445316384 38.7635750000 23.8102760000 42.1836230000
239      16   5 -0.11400071250445316384 39.1419560000 25.9272500000 42.5258230000
240      16   5 -0.11400071250445316384 40.4884220000 24.7722490000 41.2624410000
241      17   1 -0.47025293908086934769 26.3124070000 51.4599790000 23.2704990000
242      17   2  0.72675454221588897674 27.6822460000 50.7516140000 23.7774000000
243      17   3 -0.37762736017100112518 27.7569370000 49.3127700000 23.4852820000
244      17   3 -0.37762736017100112518 28.9117070000 51.5509740000 23.6526010000
245      17   4  0.24937655860349128289 27.2525400000 50.8319190000 25.6134700000
246      17   5 -0.11400071250445316384 26.1190690000 50.1706020000 25.9036980000
247      17   5 -0.11400071250445316384 27.1276410000 52.0985670000 26.0451940000
248      17   5 -0.11400071250445316384 28.2559900000 50.2562480000 26.3111580000
249      17   2  0.72675454221588897674 26.1068020000 52.0539920000 21.7921150000
250      17   3 -0.37762736017100112518 24.6724990000 52.0575660000 21.4777090000
251      17   3 -0.37762736017100112518 27.0725250000 51.6033840000 20.7796000000
252      17   4  0.24937655860349128289 26.4832430000 53.8970810000 21.9912900000
253      17   5 -0.11400071250445316384 25.6899710000 54.4610430000 22.9233450000
254      17   5 -0.11400071250445316384 27.7596970000 54.1142680000 22.3421120000
255      17   5 -0.11400071250445316384 26.2590490000 54.5356410000 20.8210490000
256      18   1 -0.47025293908086934769 21.8217040000 19.1474690000 31.3974080000
257      18   2  0.72675454221588897674 23.1385810000 20.0850400000 31.2491330000
258      18   3 -0.37762736017100112518 22.9069490000 21.3307810000 30.5037080000
259      18   3 -0.37762736017100112518 24.0397160000 20.1281310000 32.4119840000
260      18   4  0.24937655860349128289 24.0169110000 18.9602150000 30.0139990000
261      18   5 -0.11400071250445316384 23.3054940000 18.7818340000 28.8877690000
262      18   5 -0.11400071250445316384 24.2900020000 17.7536710000 30.5394080000
263      18   5 -0.11400071250445316384 25.1905490000 19.5361530000 29.6734900000
264      18   2  0.72675454221588897674 20.7426310000 19.3012430000 32.5775340000
265      18   3 -0.37762736017100112518 19.4548340000 18.7686030000 32.1149700000
266      18   3 -0.37762736017100112518 20.7809920000 20.5689050000 33.3207800000
267      18   4  0.24937655860349128289 21.2816920000 18.0106970000 33.8512140000
268      18   5 -0.11400071250445316384 21.3287570000 16.7777130000 33.3093670000
269      18   5 -0.11400071250445316384 22.4890120000 18.2869930000 34.3665960000
270      18   5 -0.11400071250445316384 20.3925500000 17.9778030000 34.8689710000
271      19   1 -0.47025293908086934769 46.6208110000 34.5462820000 30.7002740000
272      19   2  0.72675454221588897674 46.4096260000 35.3373760000 32.1019730000
273      19   3 -0.37762736017100112518 45.0018240000 35.4978220000 32.4938060000
274      19   3 -0.37762736017100112518 47.3981430000 35.0640860000 33.1575640000
275      19   4  0.24937655860349128289 46.8997140000 37.0293780000 31.4243370000
276      19   5 -0.11400071250445316384 46.1078260000 37.4251690000 30.4131040000
277      19   5 -0.11400071250445316384 48.1743800000 37.0500210000 30.9986830000
278      19   5 -0.11400071250445316384 46.7830220000 37.9363620000 32.4187410000
279      19   2  0.72675454221588897674 46.7167570000 32.9470830000 30.5815340000
280      19   3 -0.37762736017100112518 46.3091540000 32.5466750000 29.2288970000
281      19   3 -0.37762736017100112518 46.2314360000 32.1872720000 31.7425700000
282      19   4  0.24937655860349128289 48.5776890000 32.6081260000 30.5616950000
283      19   5 -0.11400071250445316384 49.1852600000 33.2693590000 29.5568620000
284      19   5 -0.11400071250445316384 49.1659530000 32.9656860000 31.7130760000
285      19   5 -0.11400071250445316384 48.7969540000 31.2872840000 30.3751900000
286      20   1 -0.47025293908086934769 52.2327690000 14.6144840000 53.9515100000
287      20   2  0.72675454221588897674 52.0923970000 16.1532480000 54.4491980000
288      20   3 -0.37762736017100112518 52.5089130000 17.1472510000 53.4493700000
289      20   3 -0.37762736017100112518 50.9238110000 16.4602240000 55.2896120000
290      20   4  0.24937655860349128289 53.5374760000 16.0784810000 55.6609760000
291      20   5 -0.11400071250445316384 54.6976790000 15.7708990000 55.0562870000
292      20   5 -0.11400071250445316384 53.3224010000 15.1885540000 56.6449240000
293      20   5 -0.11400071250445316384 53.6791400000 17.2954100000 56.2302680000
294      20   2  0.72675454221588897674 51.0922080000 13.8308490000 53.1355580000
295      20   3 -0.37762736017100112518 51.7206080000 12.7593660000 52.3525320000
296      20   3 -0.37762736017100112518 50.0534330000 14.6689180000 52.5195700000
297      20   4  0.24937655860349128289 50.1647420000 12.8660970000 54.4725010000
298      20   5 -0.11400071250445316384 50.9968750000 12.0604390000 55.1613630000
299      20   5 -0.11400071250445316384 49.5526050000 13.6796490000 55.3460000000
300      20   5 -0.11400071250445316384 49.2211680000 12.0866820000 53.8983340000
301      21   1 -0.47025293908086934769 25.9551290000  4.7059900000 34.9516890000
302      21   2  0.72675454221588897674 26.6875390000  3.7642270000 36.0525290000
303      21   3 -0.37762736017100112518 28.0538190000  3.3643450000 35.6857140000
304      21   3 -0.37762736017100112518 26.4102590000  4.0779900000 37.4634840000
305      21   4  0.24937655860349128289 25.6431550000  2.2329750000 35.6964650000
306      21   5 -0.11400071250445316384 25.7532300000  1.8230250000 34.4212580000
307      21   5 -0.11400071250445316384 24.3425070000  2.4383070000 35.9657890000
308      21   5 -0.11400071250445316384 26.0746050000  1.2291620000 36.4910010000
309      21   2  0.72675454221588897674 26.0917750000  6.3061160000 34.9108490000
310      21   3 -0.37762736017100112518 25.8439100000  6.7683890000 33.5393690000
311      21   3 -0.37762736017100112518 27.2083490000  6.8744990000 35.6796510000
312      21   4  0.24937655860349128289 24.5526000000  6.9127830000 35.8280460000
313      21   5 -0.11400071250445316384 23.4255660000  6.4445870000 35.2565130000
314      21   5 -0.11400071250445316384 24.5547580000  6.5379530000 37.1160990000
315      21   5 -0.11400071250445316384 24.5024900000  8.2631010000 35.7878420000
316      22   1 -0.47025293908086934769  1.8401320000 16.1291430000 28.1556270000
317      22   2  0.72675454221588897674  0.8186160000 14.8714980000 28.0555040000
318      22   3 -0.37762736017100112518  0.0000000000 14.6665420000 29.2592660000
319      22   3 -0.37762736017100112518  0.1929090000 14.6456430000 26.7426420000
320      22   4  0.24937655860349128289  2.1583100000 13.5472270000 28.1728740000
321      22   5 -0.11400071250445316384  2.8617760000 13.6300330000 29.3150680000
322      22   5 -0.11400071250445316384  3.0164280000 13.6079030000 27.1402400000
323      22   5 -0.11400071250445316384  1.5626140000 12.3350820000 28.1424350000
324      22   2  0.72675454221588897674  1.4405040000 17.6382920000 27.7768000000
325      22   3 -0.37762736017100112518  2.3160990000 18.5595470000 28.5121320000
326      22   3 -0.37762736017100112518  0.0000000000 17.9177450000 27.6890050000
327      22   4  0.24937655860349128289  2.0507650000 17.8321320000 25.9968110000