Generated by pymatgen.io.lammps.data.LammpsData

17306  atoms
16947  bonds
28821  angles
31171  dihedrals
 2428  impropers

   20  atom types
   21  bond types
   32  angle types
   33  dihedral types
    4  improper types

-0.2500000000 60.2500000000  xlo xhi
-0.2500000000 60.2500000000  ylo yhi
-0.2500000000 60.2500000000  zlo zhi

Masses

1   14.01000
2   32.06000
3   16.00000
4   12.01000
5   19.00000
6   14.00670
7   14.00670
8   12.01070
9   12.01070
10  12.01070
11  12.01070
12   1.00794
13   1.00794
14  16.00000
15  12.01000
16  12.01000
17   1.00800
18  32.06000
19  32.06000
20   6.94100

Pair Coeffs

1       0.17  3.249999
2       0.25  3.549340
3       0.21  2.959566
4      0.066  3.499450
5      0.053  2.948875
6     0.1700  3.250000
7     0.1700  3.250000
8     0.0700  3.550000
9     0.0660  3.500000
10    0.0700  3.550000
11    0.0700  3.550000
12    0.0300  2.500000
13    0.0300  2.420000
14      0.14  2.900000
15     0.066  3.500000
16     0.066  3.500000
17      0.03  2.500000
18  0.344001  3.590322
19  0.344001  3.590322
20  0.165057  1.506000

Bond Coeffs

1   441.80  1.323
2   235.40  1.818
3   637.10  1.442
4   372.00  1.570
5   427.00  1.381
6   320.00  1.443
7   477.00  1.343
8   488.00  1.335
9   410.00  1.394
10  520.00  1.370
11  367.00  1.080
12  340.00  1.090
13  367.00  1.080
14  367.00  1.080
15  320.00  1.410
16  320.00  1.380
17  268.00  1.529
18  340.00  1.090
19  340.00  1.090
20  157.87  2.133
21  154.36  2.117


Angle Coeffs

1    93.30  107.100
2    82.90  111.800
3   104.00  102.600
4   115.80  118.500
5    94.30  113.600
6    97.50  100.200
7    80.20  125.600
8    65.00  127.500
9    70.00  109.800
10   60.00  127.661
11   70.00  110.000
12   70.00  106.300
13   35.00  121.600
14   35.00  130.700
15   50.00  108.619
16   33.00  107.800
17   70.00  120.000
18   35.00  120.000
19   35.00  120.000
20   70.00  111.000
21   35.00  120.000
22   35.00  128.200
23   60.00  109.500
24   50.00  109.500
25   35.00  109.500
26   37.50  110.700
27   33.00  107.800
28   92.60  111.550
29   35.00  109.500
30   33.00  109.500
31   73.56  112.740
32   73.56  112.740


Dihedral Coeffs

1 1 0.173400000 3 0.000000000
2 1 0.158000000 3 0.000000000
3 1 -0.001800000 3 0.000000000
4 3 3.916460000 1 0.000000000 -1.245000000 2 180.000000000 -0.381800000 3 0.000000000
5 1 3.625000000 2 180.000000000
6 1 3.625000000 2 180.000000000
7 1 1.400000000 2 180.000000000
8 1 3.625000000 2 180.000000000
9 1 0.000000000 1 0.000000000
10 1 0.000000000 1 0.000000000
11 1 2.325000000 2 180.000000000
12 1 2.325000000 2 180.000000000
13 1 3.625000000 2 180.000000000
14 1 3.625000000 2 180.000000000
15 1 5.000000000 2 180.000000000
16 1 5.000000000 2 180.000000000
17 1 2.400000000 2 180.000000000
18 1 2.400000000 2 180.000000000
19 1 5.375000000 2 180.000000000
20 1 5.375000000 2 180.000000000
21 1 3.625000000 2 180.000000000
22 1 3.625000000 2 180.000000000
23 3 0.062500000 1 0.000000000 -0.011000000 2 180.000000000 0.280500000 3 0.000000000
24 3 0.062500000 1 0.000000000 -0.011000000 2 180.000000000 0.280500000 3 0.000000000
25 1 0.370500000 3 0.000000000
26 1 0.370500000 3 0.000000000
27 3 -0.533500000 1 0.000000000 -0.783500000 2 180.000000000 0.337500000 3 0.000000000
28 1 0.370500000 3 0.000000000
29 3 1.119000000 1 0.000000000 -1.163500000 2 180.000000000 -0.341500000 3 0.000000000
30 1 0.234000000 3 0.000000000
31 1 0.150000000 3 0.000000000
32 4 5.431700000 1 0.000000000 -3.590000000 2 180.000000000 1.055600000 3 0.000000000 0.058320000 4 180.000000000
33 4 5.431700000 1 0.000000000 -3.590000000 2 180.000000000 1.055600000 3 0.000000000 0.058320000 4 180.000000000


Improper Coeffs

1 4.000000000 -1 2
2 1.100000000 -1 2
3 1.100000000 -1 2
4 1.100000000 -1 2


Atoms

1         1   1 -0.45174537987679680429 39.1230620000  7.0527220000 50.2399640000
2         1   2  0.69815195071868596521 39.1412980000  5.4542720000 49.9574430000
3         1   3 -0.36276522929500348846 39.6058800000  5.0884540000 48.6115150000
4         1   3 -0.36276522929500348846 39.5407870000  4.5993950000 51.0869200000
5         1   4  0.23956194387405888024 37.2650280000  5.2702570000 49.8680080000
6         1   5 -0.10951403148528406073 36.7223500000  6.0222600000 48.8952180000
7         1   5 -0.10951403148528406073 36.6729800000  5.5892830000 51.0316590000
8         1   5 -0.10951403148528406073 36.9762530000  3.9780530000 49.5998740000
9         1   2  0.69815195071868596521 40.3904410000  7.8803410000 50.7780510000
10        1   3 -0.36276522929500348846 40.2516920000  9.2823500000 50.3642750000
11        1   3 -0.36276522929500348846 41.6932660000  7.2108060000 50.6546710000
12        1   4  0.23956194387405888024 40.1042700000  7.9780480000 52.6453800000
13        1   5 -0.10951403148528406073 38.9168780000  8.5484170000 52.9297050000
14        1   5 -0.10951403148528406073 40.1352180000  6.7674830000 53.2225760000
15        1   5 -0.10951403148528406073 41.0694430000  8.7347860000 53.2139520000
16        2   1 -0.45174537987679680429 48.6146240000 55.9724270000 36.7626800000
17        2   2  0.69815195071868596521 49.1550790000 55.7894280000 38.2824200000
18        2   3 -0.36276522929500348846 49.1483850000 57.0278880000 39.0744770000
19        2   3 -0.36276522929500348846 48.7898350000 54.5322540000 38.9549040000
20        2   4  0.23956194387405888024 50.9644480000 55.5563690000 37.7985610000
21        2   5 -0.10951403148528406073 51.4575320000 56.6154800000 37.1341200000
22        2   5 -0.10951403148528406073 51.1451460000 54.4594550000 37.0432400000
23        2   5 -0.10951403148528406073 51.6906960000 55.4031450000 38.9273490000
24        2   2  0.69815195071868596521 47.0659630000 55.8763780000 36.3465480000
25        2   3 -0.36276522929500348846 46.8573930000 56.6469410000 35.1141430000
26        2   3 -0.36276522929500348846 46.0978180000 55.9878990000 37.4470530000
27        2   4  0.23956194387405888024 46.8706240000 54.0926170000 35.7478870000
28        2   5 -0.10951403148528406073 47.7257350000 53.8166650000 34.7435480000
29        2   5 -0.10951403148528406073 47.0821670000 53.2061210000 36.7322420000
30        2   5 -0.10951403148528406073 45.6157720000 53.9047560000 35.2814730000
31        3   1 -0.45174537987679680429  6.4858590000 48.0954040000 47.9920750000
32        3   2  0.69815195071868596521  7.7391470000 48.2888470000 49.0055060000
33        3   3 -0.36276522929500348846  8.0397510000 49.6916080000 49.3265640000
34        3   3 -0.36276522929500348846  7.8695090000 47.2874010000 50.0761300000
35        3   4  0.23956194387405888024  9.0595460000 47.8065440000 47.7460690000
36        3   5 -0.10951403148528406073  9.0584340000 48.6107760000 46.6692510000
37        3   5 -0.10951403148528406073  8.9154520000 46.5372560000 47.3283070000
38        3   5 -0.10951403148528406073 10.2698840000 47.9105140000 48.3371270000
39        3   2  0.69815195071868596521  4.9551340000 48.0015750000 48.4704240000
40        3   3 -0.36276522929500348846  4.0861470000 48.4261080000 47.3655590000
41        3   3 -0.36276522929500348846  4.6794550000 48.4727360000 49.8352910000
42        3   4  0.23956194387405888024  4.6235440000 46.1411670000 48.5557800000
43        3   5 -0.10951403148528406073  4.8645940000 45.5458640000 47.3710560000
44        3   5 -0.10951403148528406073  5.3775900000 45.5385040000 49.4873330000
45        3   5 -0.10951403148528406073  3.3259510000 45.9247590000 48.8670780000
46        4   1 -0.45174537987679680429 43.5810220000 44.3847440000 41.9314590000
47        4   2  0.69815195071868596521 43.2333930000 42.8826360000 42.4394130000
48        4   3 -0.36276522929500348846 42.7901740000 41.9757280000 41.3706490000
49        4   3 -0.36276522929500348846 44.0984030000 42.3384870000 43.4985560000
50        4   4  0.23956194387405888024 41.6412950000 43.3630610000 43.3319740000
51        4   5 -0.10951403148528406073 40.7376000000 43.9165200000 42.5053260000
52        4   5 -0.10951403148528406073 41.8708350000 44.2175850000 44.3436470000
53        4   5 -0.10951403148528406073 41.0919260000 42.2448090000 43.8542610000
54        4   2  0.69815195071868596521 45.0189030000 44.8282380000 41.3688280000
55        4   3 -0.36276522929500348846 44.8444490000 45.9837560000 40.4797640000
56        4   3 -0.36276522929500348846 45.9180520000 43.7347760000 40.9729420000
57        4   4  0.23956194387405888024 45.8724170000 45.5975210000 42.8715170000
58        4   5 -0.10951403148528406073 45.1466880000 46.6124890000 43.3806550000
59        4   5 -0.10951403148528406073 46.0775190000 44.6999590000 43.8471690000
60        4   5 -0.10951403148528406073 47.0744890000 46.0960430000 42.5054780000
61        5   1 -0.45174537987679680429 41.8741080000 27.7381140000 27.9173300000
62        5   2  0.69815195071868596521 41.4442640000 27.4785050000 29.4610360000
63        5   3 -0.36276522929500348846 41.2321290000 26.0625160000 29.7944400000
64        5   3 -0.36276522929500348846 42.0837180000 28.3413260000 30.4673970000
65        5   4  0.23956194387405888024 39.7014790000 28.1796470000 29.2784150000
66        5   5 -0.10951403148528406073 38.9774020000 27.5192380000 28.3586860000
67        5   5 -0.10951403148528406073 39.7161820000 29.4831990000 28.9514330000
68        5   5 -0.10951403148528406073 39.0679040000 28.0601330000 30.4655870000
69        5   2  0.69815195071868596521 43.3918590000 27.6966130000 27.3924930000
70        5   3 -0.36276522929500348846 43.3896320000 27.3740800000 25.9599920000
71        5   3 -0.36276522929500348846 44.3613080000 27.0435520000 28.2838590000
72        5   4  0.23956194387405888024 43.9200230000 29.5130270000 27.3987320000
73        5   5 -0.10951403148528406073 43.0983980000 30.2645860000 26.6396840000
74        5   5 -0.10951403148528406073 43.9327330000 30.0284600000 28.6371780000
75        5   5 -0.10951403148528406073 45.1668620000 29.6253870000 26.8885810000
76        6   1 -0.45174537987679680429 30.2839720000 41.6914380000 27.5171080000
77        6   2  0.69815195071868596521 29.7385570000 41.3524740000 26.0261970000
78        6   3 -0.36276522929500348846 28.5083270000 42.0693170000 25.6603370000
79        6   3 -0.36276522929500348846 30.7635740000 41.1564050000 24.9884000000
80        6   4  0.23956194387405888024 29.1532240000 39.6078640000 26.4456840000
81        6   5 -0.10951403148528406073 28.2236450000 39.5989510000 27.4163190000
82        6   5 -0.10951403148528406073 30.1698590000 38.8143080000 26.8239750000
83        6   5 -0.10951403148528406073 28.5987790000 39.0671190000 25.3387680000
84        6   2  0.69815195071868596521 31.2578610000 42.9237050000 27.8544510000
85        6   3 -0.36276522929500348846 31.0755960000 43.3007080000 29.2618390000
86        6   3 -0.36276522929500348846 31.3475390000 43.9706420000 26.8264750000
87        6   4  0.23956194387405888024 32.9820070000 42.1454980000 27.8627440000
88        6   5 -0.10951403148528406073 33.0569560000 41.1304660000 28.7460080000
89        6   5 -0.10951403148528406073 33.3266680000 41.6746070000 26.6548320000
90        6   5 -0.10951403148528406073 33.8971200000 43.0724260000 28.2244890000
91        7   1 -0.45174537987679680429 19.8642080000 10.6915630000  6.1657550000
92        7   2  0.69815195071868596521 20.0500840000  9.5194040000  7.2733120000
93        7   3 -0.36276522929500348846 21.3917010000  8.9186360000  7.2912760000
94        7   3 -0.36276522929500348846 19.3633980000  9.7252880000  8.5586910000
95        7   4  0.23956194387405888024 18.9846690000  8.2516070000  6.3678660000
96        7   5 -0.10951403148528406073 19.4568790000  7.9676610000  5.1420110000
97        7   5 -0.10951403148528406073 17.7100780000  8.6607170000  6.2477450000
98        7   5 -0.10951403148528406073 18.9836740000  7.1065780000  7.0847930000
99        7   2  0.69815195071868596521 20.2251810000 12.2348820000  6.4276850000
100       7   3 -0.36276522929500348846 20.5156370000 12.8790370000  5.1405210000
101       7   3 -0.36276522929500348846 21.0877330000 12.5041770000  7.5871410000
102       7   4  0.23956194387405888024 18.5669370000 13.0102540000  6.9045290000
103       7   5 -0.10951403148528406073 17.6425140000 12.8196230000  5.9426740000
104       7   5 -0.10951403148528406073 18.0872400000 12.5053440000  8.0510620000
105       7   5 -0.10951403148528406073 18.7192150000 14.3434330000  7.0686320000
106       8   1 -0.45174537987679680429  2.3375760000 54.8504840000 26.4010380000
107       8   2  0.69815195071868596521  1.7903220000 56.0242050000 27.3798550000
108       8   3 -0.36276522929500348846  1.5732240000 57.3132660000 26.7072680000
109       8   3 -0.36276522929500348846  0.8309540000 55.6108560000 28.4166190000
110       8   4  0.23956194387405888024  3.4178520000 56.2519840000 28.3080310000
111       8   5 -0.10951403148528406073  4.4272940000 56.6036340000 27.4933540000
112       8   5 -0.10951403148528406073  3.7764920000 55.1406160000 28.9733280000
113       8   5 -0.10951403148528406073  3.2562170000 57.2404060000 29.2146590000
114       8   2  0.69815195071868596521  1.3838580000 53.8953870000 25.5298590000
115       8   3 -0.36276522929500348846  2.1381430000 53.4017950000 24.3707590000
116       8   3 -0.36276522929500348846 -0.0000080000 54.3587940000 25.3537260000
117       8   4  0.23956194387405888024  1.2110400000 52.3407300000 26.5935940000
118       8   5 -0.10951403148528406073  2.4145050000 51.8035510000 26.8749670000
119       8   5 -0.10951403148528406073  0.5842900000 52.5920140000 27.7527410000
120       8   5 -0.10951403148528406073  0.4927710000 51.4105920000 25.9254490000
121       9   1 -0.45174537987679680429 35.6897610000 17.9912870000 45.1101390000
122       9   2  0.69815195071868596521 34.5735810000 18.5104180000 44.0519170000
123       9   3 -0.36276522929500348846 35.0250020000 19.6205700000 43.2004700000
124       9   3 -0.36276522929500348846 33.7188050000 17.4750770000 43.4489650000
125       9   4  0.23956194387405888024 33.4740920000 19.3340170000 45.3461580000
126       9   5 -0.10951403148528406073 34.1175200000 20.2983740000 46.0261170000
127       9   5 -0.10951403148528406073 32.9854140000 18.4459190000 46.2286870000
128       9   5 -0.10951403148528406073 32.4259180000 19.9049070000 44.7133130000
129       9   2  0.69815195071868596521 36.7998810000 16.8819620000 44.7669570000
130       9   3 -0.36276522929500348846 37.9535780000 17.0751550000 45.6545100000
131       9   3 -0.36276522929500348846 37.0179080000 16.6130190000 43.3383250000
132       9   4  0.23956194387405888024 36.0479080000 15.2748520000 45.4227670000
133       9   5 -0.10951403148528406073 35.7563670000 15.3702740000 46.7350020000
134       9   5 -0.10951403148528406073 34.9252300000 14.9416080000 44.7684550000
135       9   5 -0.10951403148528406073 36.9329990000 14.2642750000 45.2716600000
136      10   1 -0.45174537987679680429 16.0232530000 53.0088110000 54.4392000000
137      10   2  0.69815195071868596521 16.2371000000 51.9319360000 53.2434580000
138      10   3 -0.36276522929500348846 17.4555740000 51.1205180000 53.3780150000
139      10   3 -0.36276522929500348846 15.0210860000 51.2802570000 52.7308660000
140      10   4  0.23956194387405888024 16.6744580000 53.2136570000 51.9288630000
141      10   5 -0.10951403148528406073 17.7601060000 53.9345670000 52.2574740000
142      10   5 -0.10951403148528406073 15.6572780000 54.0603890000 51.6948280000
143      10   5 -0.10951403148528406073 16.9439930000 52.5650410000 50.7748590000
144      10   2  0.69815195071868596521 15.2855340000 52.6709530000 55.8256930000
145      10   3 -0.36276522929500348846 15.7703430000 53.5953970000 56.8583850000
146      10   3 -0.36276522929500348846 15.1339580000 51.2430870000 56.1404630000
147      10   4  0.23956194387405888024 13.5115910000 53.2664070000 55.5483540000
148      10   5 -0.10951403148528406073 13.4796230000 54.5717080000 55.2148420000
149      10   5 -0.10951403148528406073 12.8941080000 52.5725740000 54.5804230000
150      10   5 -0.10951403148528406073 12.7987310000 53.1164420000 56.6871370000
151      11   1 -0.45174537987679680429 22.0031680000 53.9285730000 40.6825930000
152      11   2  0.69815195071868596521 23.2593580000 52.9064420000 40.5711250000
153      11   3 -0.36276522929500348846 22.9529090000 51.5315560000 40.9917890000
154      11   3 -0.36276522929500348846 24.1519370000 53.0974930000 39.4166010000
155      11   4  0.23956194387405888024 24.2106420000 53.6376630000 42.0280480000
156      11   5 -0.10951403148528406073 23.5157380000 53.5751720000 43.1767560000
157      11   5 -0.10951403148528406073 24.5567900000 54.9179390000 41.8102010000
158      11   5 -0.10951403148528406073 25.3471620000 52.9265290000 42.1944450000
159      11   2  0.69815195071868596521 20.9124460000 54.1351030000 39.5213810000
160      11   3 -0.36276522929500348846 19.6621090000 54.6132700000 40.1247930000
161      11   3 -0.36276522929500348846 20.8688530000 53.0897390000 38.4888280000
162      11   4  0.23956194387405888024 21.5266620000 55.6651450000 38.5939850000
163      11   5 -0.10951403148528406073 21.6526370000 56.7214930000 39.4212220000
164      11   5 -0.10951403148528406073 22.7125230000 55.4527670000 38.0038910000
165      11   5 -0.10951403148528406073 20.6377410000 56.0008840000 37.6324310000
166      12   1 -0.45174537987679680429 31.1423400000 28.3121110000 46.7472920000
167      12   2  0.69815195071868596521 32.2395670000 28.7622280000 47.8557490000
168      12   3 -0.36276522929500348846 33.3975170000 27.8617850000 47.9533970000
169      12   3 -0.36276522929500348846 32.4711060000 30.2094310000 47.9903500000
170      12   4  0.23956194387405888024 31.1749650000 28.3146790000 49.3485900000
171      12   5 -0.10951403148528406073 30.8374130000 27.0138720000 49.3655360000
172      12   5 -0.10951403148528406073 30.0487520000 29.0463880000 49.3998820000
173      12   5 -0.10951403148528406073 31.8840410000 28.5713180000 50.4694930000
174      12   2  0.69815195071868596521 31.2161070000 28.7254490000 45.1966620000
175      12   3 -0.36276522929500348846 30.4882290000 27.7261780000 44.4043600000
176      12   3 -0.36276522929500348846 32.5178920000 29.2198220000 44.7256990000
177      12   4  0.23956194387405888024 30.0858520000 30.2378040000 45.0797900000
178      12   5 -0.10951403148528406073 28.8415180000 29.9538690000 45.5123130000
179      12   5 -0.10951403148528406073 30.5523130000 31.2705070000 45.7977880000
180      12   5 -0.10951403148528406073 29.9913780000 30.6359150000 43.7913540000
181      13   1 -0.45174537987679680429 14.7230460000  5.8652570000 31.9336830000
182      13   2  0.69815195071868596521 15.4895660000  7.2469970000 32.3057470000
183      13   3 -0.36276522929500348846 14.7663020000  8.0945010000 33.2648140000
184      13   3 -0.36276522929500348846 16.9551000000  7.1677170000 32.4155300000
185      13   4  0.23956194387405888024 15.1862630000  8.0714680000 30.6352670000
186      13   5 -0.10951403148528406073 13.8776200000  8.1947210000 30.3549300000
187      13   5 -0.10951403148528406073 15.7746350000  7.4009640000 29.6299690000
188      13   5 -0.10951403148528406073 15.7192020000  9.3123770000 30.6699070000
189      13   2  0.69815195071868596521 14.8635030000  4.5082220000 32.7818980000
190      13   3 -0.36276522929500348846 13.6603960000  3.6924570000 32.5741660000
191      13   3 -0.36276522929500348846 15.4205460000  4.6519130000 34.1346400000
192      13   4  0.23956194387405888024 16.1846090000  3.5282800000 31.8476890000
193      13   5 -0.10951403148528406073 15.8333440000  3.3359960000 30.5609480000
194      13   5 -0.10951403148528406073 17.3758660000  4.1447830000 31.8679840000
195      13   5 -0.10951403148528406073 16.3359750000  2.3118760000 32.4177210000
196      14   1 -0.45174537987679680429 53.7840380000  6.9867470000 39.1109710000
197      14   2  0.69815195071868596521 52.9959470000  5.8451160000 39.9540490000
198      14   3 -0.36276522929500348846 52.7826750000  6.1842060000 41.3685150000
199      14   3 -0.36276522929500348846 51.9226700000  5.1349130000 39.2400370000
200      14   4  0.23956194387405888024 54.4334710000  4.6223800000 39.9803550000
201      14   5 -0.10951403148528406073 55.5261970000  5.1291710000 40.5765440000
202      14   5 -0.10951403148528406073 54.7726930000  4.2192270000 38.7439180000
203      14   5 -0.10951403148528406073 54.0513700000  3.5309830000 40.6788740000
204      14   2  0.69815195071868596521 53.0601020000  8.2289080000 38.3942460000
205      14   3 -0.36276522929500348846 54.0247580000  9.3279900000 38.2617700000
206      14   3 -0.36276522929500348846 51.6879100000  8.5145860000 38.8373380000
207      14   4  0.23956194387405888024 52.8498720000  7.6553940000 36.6039270000
208      14   5 -0.10951403148528406073 54.0340080000  7.3203200000 36.0547370000
209      14   5 -0.10951403148528406073 52.0305070000  6.5975570000 36.5080000000
210      14   5 -0.10951403148528406073 52.3237540000  8.6574690000 35.8646490000
211      15   1 -0.45174537987679680429 39.3700030000 58.0615960000 32.5116300000
212      15   2  0.69815195071868596521 40.6777390000 58.9900670000 32.7625480000
213      15   3 -0.36276522929500348846 41.4507610000 59.2785560000 31.5458330000
214      15   3 -0.36276522929500348846 40.5332460000 60.0588510000 33.7640200000
215      15   4  0.23956194387405888024 41.6769050000 57.6521700000 33.6422930000
216      15   5 -0.10951403148528406073 41.8764380000 56.5705930000 32.8698270000
217      15   5 -0.10951403148528406073 41.0895410000 57.2558750000 34.7843680000
218      15   5 -0.10951403148528406073 42.8872940000 58.1627410000 33.9574940000
219      15   2  0.69815195071868596521 37.9301910000 58.6387860000 32.0938590000
220      15   3 -0.36276522929500348846 37.1848890000 57.5887360000 31.3881600000
221      15   3 -0.36276522929500348846 37.9161210000 60.0143980000 31.5758360000
222      15   4  0.23956194387405888024 37.0007120000 58.7619060000 33.7368030000
223      15   5 -0.10951403148528406073 36.9521570000 57.5693940000 34.3625980000
224      15   5 -0.10951403148528406073 37.5672130000 59.6480310000 34.5695340000
225      15   5 -0.10951403148528406073 35.7283140000 59.1584070000 33.5103580000
226      16   1 -0.45174537987679680429 23.3992840000 27.2725640000 35.1496500000
227      16   2  0.69815195071868596521 21.9005650000 26.6681710000 35.3037270000
228      16   3 -0.36276522929500348846 21.8612780000 25.2232020000 35.5715010000
229      16   3 -0.36276522929500348846 20.9200530000 27.5283620000 35.9854860000
230      16   4  0.23956194387405888024 21.4632060000 26.8142600000 33.4735290000
231      16   5 -0.10951403148528406073 22.2938620000 26.1052570000 32.6901690000
232      16   5 -0.10951403148528406073 21.4719400000 28.0915470000 33.0553840000
233      16   5 -0.10951403148528406073 20.2144650000 26.3309440000 33.2942880000
234      16   2  0.69815195071868596521 24.2901780000 27.7807240000 36.3861060000
235      16   3 -0.36276522929500348846 25.7086940000 27.6881220000 36.0182370000
236      16   3 -0.36276522929500348846 23.8531830000 27.3359880000 37.7173090000
237      16   4  0.23956194387405888024 23.9989170000 29.6496330000 36.4125860000
238      16   5 -0.10951403148528406073 24.3267800000 30.2131590000 35.2331770000
239      16   5 -0.10951403148528406073 22.7205290000 29.9552840000 36.6806950000
240      16   5 -0.10951403148528406073 24.7710070000 30.2163070000 37.3666530000
241      17   1 -0.45174537987679680429 31.7172960000 11.8316960000 14.6258600000
242      17   2  0.69815195071868596521 30.9027250000 11.8991340000 16.0283990000
243      17   3 -0.36276522929500348846 31.1246990000 10.7416010000 16.9070490000
244      17   3 -0.36276522929500348846 30.7840140000 13.2290890000 16.6474730000
245      17   4  0.23956194387405888024 29.2070670000 11.5832100000 15.2621190000
246      17   5 -0.10951403148528406073 29.1480600000 10.4060230000 14.6163050000
247      17   5 -0.10951403148528406073 28.8541580000 12.5561690000 14.4046870000
248      17   5 -0.10951403148528406073 28.2900890000 11.5558920000 16.2538260000
249      17   2  0.69815195071868596521 33.2236360000 12.3582290000 14.4402640000
250      17   3 -0.36276522929500348846 33.8414180000 11.6418650000 13.3172070000
251      17   3 -0.36276522929500348846 33.9875210000 12.5668510000 15.6787350000
252      17   4  0.23956194387405888024 33.0077190000 14.1020970000 13.7397930000
253      17   5 -0.10951403148528406073 32.2886460000 14.0865670000 12.6001640000
254      17   5 -0.10951403148528406073 32.3958110000 14.9205680000 14.6088470000
255      17   5 -0.10951403148528406073 34.2188900000 14.6298680000 13.4534220000
256      18   1 -0.45174537987679680429 33.3512040000 19.5780240000 31.6663620000
257      18   2  0.69815195071868596521 32.1537700000 19.1801510000 30.6450700000
258      18   3 -0.36276522929500348846 30.8135210000 19.2198090000 31.2478500000
259      18   3 -0.36276522929500348846 32.3049260000 19.6411780000 29.2555630000
260      18   4  0.23956194387405888024 32.5808640000 17.3428390000 30.5808460000
261      18   5 -0.10951403148528406073 32.5244490000 16.7611970000 31.7911510000
262      18   5 -0.10951403148528406073 33.8026990000 17.1289430000 30.0633990000
263      18   5 -0.10951403148528406073 31.6822530000 16.7244390000 29.7838780000
264      18   2  0.69815195071868596521 33.8401050000 21.0858870000 31.9272600000
265      18   3 -0.36276522929500348846 34.4560960000 21.1611460000 33.2580420000
266      18   3 -0.36276522929500348846 32.9172760000 22.1439800000 31.4917380000
267      18   4  0.23956194387405888024 35.3303670000 21.2809040000 30.7785900000
268      18   5 -0.10951403148528406073 36.2698840000 20.3488130000 31.0327090000
269      18   5 -0.10951403148528406073 34.9846660000 21.1841820000 29.4860280000
270      18   5 -0.10951403148528406073 35.8946890000 22.4945490000 30.9685690000
271      19   1 -0.45174537987679680429 48.4124510000 41.8988740000 16.5881550000
272      19   2  0.69815195071868596521 49.2980130000 41.1269270000 15.4678570000
273      19   3 -0.36276522929500348846 50.5860360000 41.7713320000 15.1730340000
274      19   3 -0.36276522929500348846 49.2477430000 39.6563610000 15.5000080000
275      19   4  0.23956194387405888024 48.1950600000 41.6042330000 14.0125480000
276      19   5 -0.10951403148528406073 48.1003920000 42.9357990000 13.8566690000
277      19   5 -0.10951403148528406073 46.9546250000 41.1018880000 14.1364440000
278      19   5 -0.10951403148528406073 48.7348950000 41.0943040000 12.8839970000
279      19   2  0.69815195071868596521 48.5575810000 41.6520150000 18.1688950000
280      19   3 -0.36276522929500348846 48.1033690000 42.8536120000 18.8801950000
281      19   3 -0.36276522929500348846 49.7863360000 40.9710990000 18.6017580000
282      19   4  0.23956194387405888024 47.1868860000 40.4077010000 18.5577790000
283      19   5 -0.10951403148528406073 45.9796450000 40.8765800000 18.1852440000
284      19   5 -0.10951403148528406073 47.3862960000 39.2319920000 17.9433470000
285      19   5 -0.10951403148528406073 47.1450780000 40.1792660000 19.8895280000
286      20   1 -0.45174537987679680429 33.9250110000 44.9021200000  4.1132180000
287      20   2  0.69815195071868596521 34.1596980000 44.6496360000  5.6995230000
288      20   3 -0.36276522929500348846 35.5389790000 44.8906500000  6.1474940000
289      20   3 -0.36276522929500348846 33.0592840000 45.0503340000  6.5909570000
290      20   4  0.23956194387405888024 34.0245880000 42.7697140000  5.6000780000
291      20   5 -0.10951403148528406073 34.9497010000 42.2319500000  4.7868720000
292      20   5 -0.10951403148528406073 32.8100240000 42.3748420000  5.1813970000
293      20   5 -0.10951403148528406073 34.2184370000 42.2628790000  6.8372590000
294      20   2  0.69815195071868596521 33.5631410000 46.3331870000  3.4793120000
295      20   3 -0.36276522929500348846 33.9997880000 46.3550290000  2.0775440000
296      20   3 -0.36276522929500348846 33.8171980000 47.4983500000  4.3387910000
297      20   4  0.23956194387405888024 31.6789690000 46.2899820000  3.3168750000
298      20   5 -0.10951403148528406073 31.2755970000 45.2427080000  2.5708390000
299      20   5 -0.10951403148528406073 31.0732760000 46.2101870000  4.5111740000
300      20   5 -0.10951403148528406073 31.2495370000 47.4175180000  2.7071740000
301      21   1 -0.45174537987679680429  3.6206420000  7.6018660000 38.6135540000
302      21   2  0.69815195071868596521  4.4645460000  6.4164270000 37.8940070000
303      21   3 -0.36276522929500348846  5.7706600000  6.1490370000 38.5134840000
304      21   3 -0.36276522929500348846  3.6834580000  5.2721420000 37.3973800000
305      21   4  0.23956194387405888024  4.8793460000  7.4114900000 36.3448010000
306      21   5 -0.10951403148528406073  5.5743620000  8.5275220000 36.6236430000
307      21   5 -0.10951403148528406073  3.7760010000  7.7582280000 35.6601240000
308      21   5 -0.10951403148528406073  5.6409790000  6.6426390000 35.5361830000
309      21   2  0.69815195071868596521  2.6431120000  7.3698050000 39.8670790000
310      21   3 -0.36276522929500348846  2.5285170000  8.6263620000 40.6180930000
311      21   3 -0.36276522929500348846  2.8182820000  6.1026580000 40.5913090000
312      21   4  0.23956194387405888024  0.9308300000  7.2103650000 39.0790270000
313      21   5 -0.10951403148528406073  0.6277800000  8.2971090000 38.3419980000
314      21   5 -0.10951403148528406073  0.8401300000  6.1305760000 38.2881990000
315      21   5 -0.10951403148528406073 -0.0060230000  7.0969390000 40.0469770000
316      22   1 -0.45174537987679680429 24.3413280000  9.2355320000 57.0838870000
317      22   2  0.69815195071868596521 24.1744120000  7.7025890000 57.5912460000
318      22   3 -0.36276522929500348846 24.8247650000  6.7096690000 56.7238750000
319      22   3 -0.36276522929500348846 24.2219670000  7.4912210000 59.0469890000
320      22   4  0.23956194387405888024 22.3425700000  7.5719220000 57.1558950000