Generated by pymatgen.io.lammps.data.LammpsData

16358  atoms
15647  bonds
28200  angles
29433  dihedrals

   16  atom types
   15  bond types
   26  angle types
   25  dihedral types

-0.2500000000 60.2500000000  xlo xhi
-0.2500000000 60.2500000000  ylo yhi
-0.2500000000 60.2500000000  zlo zhi

Masses

1   18.998403
2   15.999400
3   12.010700
4    1.007940
5   14.010000
6   32.060000
7   16.000000
8   12.010000
9   19.000000
10  16.000000
11  12.010000
12  12.010000
13   1.008000
14  32.060000
15  32.060000
16   6.941000

Pair Coeffs

1     0.0530  2.950000
2     0.1400  2.900000
3     0.0620  3.250000
4     0.0300  2.500000
5       0.17  3.249999
6       0.25  3.549340
7       0.21  2.959566
8      0.066  3.499450
9      0.053  2.948875
10      0.14  2.900000
11     0.066  3.500000
12     0.066  3.500000
13      0.03  2.500000
14  0.344001  3.590322
15  0.344001  3.590322
16  0.165057  1.506000

Bond Coeffs

1   367.00  1.332
2   320.00  1.410
3   268.00  1.529
4   340.00  1.090
5   441.80  1.323
6   235.40  1.818
7   637.10  1.442
8   372.00  1.570
9   320.00  1.410
10  320.00  1.380
11  268.00  1.529
12  340.00  1.090
13  340.00  1.090
14  157.87  2.133
15  154.36  2.117


Angle Coeffs

1    60.00  109.50
2    77.00  109.10
3    50.00  109.50
4    58.35  112.70
5    50.00  109.50
6    35.00  109.50
7    37.50  110.70
8    33.00  107.80
9    40.00  107.00
10   93.30  107.10
11   82.90  111.80
12  104.00  102.60
13  115.80  118.50
14   94.30  113.60
15   97.50  100.20
16   80.20  125.60
17   60.00  109.50
18   50.00  109.50
19   35.00  109.50
20   37.50  110.70
21   33.00  107.80
22   92.60  111.55
23   35.00  109.50
24   33.00  109.50
25   73.56  112.74
26   73.56  112.74


Dihedral Coeffs

1 3 0.062500000 1 0.000000000 -0.011000000 2 180.000000000 0.280500000 3 0.000000000
2 1 0.370500000 3 0.000000000
3 2 0.518500000 1 0.000000000 -0.728500000 2 180.000000000
4 1 0.221000000 3 0.000000000
5 3 0.627500000 1 0.000000000 -0.309500000 2 180.000000000 0.273000000 3 0.000000000
6 1 0.150000000 3 0.000000000
7 3 0.301000000 1 0.000000000 -1.359500000 2 180.000000000 0.367000000 3 0.000000000
8 3 0.396500000 1 0.000000000 -0.183500000 2 180.000000000 0.414500000 3 0.000000000
9 1 0.234000000 3 0.000000000
10 1 0.150000000 3 0.000000000
11 1 0.173400000 3 0.000000000
12 1 0.158000000 3 0.000000000
13 1 -0.001800000 3 0.000000000
14 3 3.916460000 1 0.000000000 -1.245000000 2 180.000000000 -0.381800000 3 0.000000000
15 3 0.062500000 1 0.000000000 -0.011000000 2 180.000000000 0.280500000 3 0.000000000
16 3 0.062500000 1 0.000000000 -0.011000000 2 180.000000000 0.280500000 3 0.000000000
17 1 0.370500000 3 0.000000000
18 1 0.370500000 3 0.000000000
19 3 -0.533500000 1 0.000000000 -0.783500000 2 180.000000000 0.337500000 3 0.000000000
20 1 0.370500000 3 0.000000000
21 3 1.119000000 1 0.000000000 -1.163500000 2 180.000000000 -0.341500000 3 0.000000000
22 1 0.234000000 3 0.000000000
23 1 0.150000000 3 0.000000000
24 4 5.431700000 1 0.000000000 -3.590000000 2 180.000000000 1.055600000 3 0.000000000 0.058320000 4 180.000000000
25 4 5.431700000 1 0.000000000 -3.590000000 2 180.000000000 1.055600000 3 0.000000000 0.058320000 4 180.000000000


Atoms

1         1   1 -0.11999999999999999556  4.2931250000 28.5846710000 42.5754220000
2         1   1 -0.11999999999999999556  5.6115800000 27.3075770000 41.3447370000
3         1   1 -0.11999999999999999556  6.9904790000 29.0381340000 42.9148020000
4         1   1 -0.11999999999999999556  7.1644250000 29.5748790000 40.7732520000
5         1   2 -0.40000000000000002220  4.0170530000 30.3240970000 40.3474850000
6         1   3  0.23999999999999999112  5.1401290000 28.5845010000 41.4963550000
7         1   3  0.14000000000000001332  4.3869210000 28.9688280000 40.2325130000
8         1   3  0.08999999999999999667  6.3056200000 29.5262550000 41.8422300000
9         1   3  0.14000000000000001332  3.2906220000 30.8137920000 39.2181040000
10        1   3 -0.17999999999999999334  2.9624750000 32.2757960000 39.4645610000
11        1   4  0.02999999999999999889  5.0480320000 28.7980440000 39.3706020000
12        1   4  0.02999999999999999889  3.5121580000 28.3058060000 40.1508090000
13        1   4  0.14999999999999999445  5.9532210000 30.5350310000 42.0632530000
14        1   4  0.02999999999999999889  3.9020170000 30.6933000000 38.3090870000
15        1   4  0.02999999999999999889  2.3721910000 30.2185950000 39.0894030000
16        1   4  0.05999999999999999778  3.8802330000 32.8605470000 39.5860900000
17        1   4  0.05999999999999999778  2.3993050000 32.6833610000 38.6172410000
18        1   4  0.05999999999999999778  2.3576520000 32.3853720000 40.3703140000
19        2   1 -0.11999999999999999556 21.1355640000 10.4738490000 17.2095830000
20        2   1 -0.11999999999999999556 21.8792370000 10.6519060000 15.1361510000
21        2   1 -0.11999999999999999556 23.5356390000 11.8038380000 16.9501740000
22        2   1 -0.11999999999999999556 22.5498900000 13.3234930000 15.6759930000
23        2   2 -0.40000000000000002220 19.5201520000 12.7642720000 16.7514060000
24        2   3  0.23999999999999999112 21.3348370000 11.3553580000 16.1775790000
25        2   3  0.14000000000000001332 20.0085660000 11.9399590000 15.7176080000
26        2   3  0.08999999999999999667 22.3437830000 12.4045010000 16.6737890000
27        2   3  0.14000000000000001332 18.2647090000 13.3759150000 16.4468430000
28        2   3 -0.17999999999999999334 17.8582430000 14.2361070000 17.6303690000
29        2   4  0.02999999999999999889 20.1831750000 12.5069130000 14.7917570000
30        2   4  0.02999999999999999889 19.3307110000 11.1000820000 15.5017320000
31        2   4  0.14999999999999999445 21.9802640000 12.9198280000 17.5642700000
32        2   4  0.02999999999999999889 18.3653030000 13.9829800000 15.5325200000
33        2   4  0.02999999999999999889 17.5151280000 12.5920860000 16.2517020000
34        2   4  0.05999999999999999778 18.6055020000 15.0151220000 17.8140010000
35        2   4  0.05999999999999999778 16.8940360000 14.7180110000 17.4321380000
36        2   4  0.05999999999999999778 17.7635200000 13.6250600000 18.5336160000
37        3   1 -0.11999999999999999556 43.3036940000 46.7808490000 15.1502170000
38        3   1 -0.11999999999999999556 41.9589590000 46.3590340000 16.8524610000
39        3   1 -0.11999999999999999556 41.3728250000 48.6948600000 15.6027970000
40        3   1 -0.11999999999999999556 42.2026840000 49.0462570000 17.6257760000
41        3   2 -0.40000000000000002220 45.1767850000 47.8633850000 16.9900990000
42        3   3  0.23999999999999999112 42.9861420000 47.1602450000 16.4296780000
43        3   3  0.14000000000000001332 44.1728540000 46.9439630000 17.3555620000
44        3   3  0.08999999999999999667 42.5052890000 48.6191690000 16.3574500000
45        3   3  0.14000000000000001332 46.3597920000 47.7607160000 17.7856860000
46        3   3 -0.17999999999999999334 47.3501910000 48.8029840000 17.2971500000
47        3   4  0.02999999999999999889 43.8360740000 47.0977830000 18.3909580000
48        3   4  0.02999999999999999889 44.5029210000 45.9006890000 17.2367430000
49        3   4  0.14999999999999999445 43.2698850000 49.2722540000 15.9337310000
50        3   4  0.02999999999999999889 46.1039450000 47.9239840000 18.8451760000
51        3   4  0.02999999999999999889 46.7758620000 46.7447300000 17.6908390000
52        3   4  0.05999999999999999778 46.9310500000 49.8093580000 17.3996880000
53        3   4  0.05999999999999999778 48.2741060000 48.7488760000 17.8842390000
54        3   4  0.05999999999999999778 47.5959090000 48.6341170000 16.2439110000
55        4   1 -0.11999999999999999556  8.4682660000 11.7039450000 35.6463230000
56        4   1 -0.11999999999999999556 10.4243840000 11.9711380000 34.6533050000
57        4   1 -0.11999999999999999556  9.9069280000  9.3820680000 35.2780040000
58        4   1 -0.11999999999999999556 11.5421230000 10.2035010000 36.5253910000
59        4   2 -0.40000000000000002220  9.7056030000 12.3864910000 38.1097850000
60        4   3  0.23999999999999999112  9.8245730000 11.6856410000 35.8510140000
61        4   3  0.14000000000000001332 10.2229920000 12.7583280000 36.8524780000
62        4   3  0.08999999999999999667 10.1925330000 10.2565530000 36.2836930000
63        4   3  0.14000000000000001332 10.0063060000 13.3214160000 39.1482930000
64        4   3 -0.17999999999999999334  9.4029540000 12.8021040000 40.4414130000
65        4   4  0.02999999999999999889 11.3203350000 12.8272600000 36.8670380000
66        4   4  0.02999999999999999889  9.8079400000 13.7147680000 36.4997200000
67        4   4  0.14999999999999999445  9.6562020000  9.9610350000 37.1868450000
68        4   4  0.02999999999999999889 11.0993460000 13.4306550000 39.2375310000
69        4   4  0.02999999999999999889  9.5883380000 14.3063050000 38.8844070000
70        4   4  0.05999999999999999778  9.8273060000 11.8260680000 40.6988260000
71        4   4  0.05999999999999999778  9.6110770000 13.4995690000 41.2608330000
72        4   4  0.05999999999999999778  8.3181640000 12.6945530000 40.3420700000
73        5   1 -0.11999999999999999556 45.5321190000  9.0125170000 54.2881570000
74        5   1 -0.11999999999999999556 47.3629120000  9.3358290000 53.0933590000
75        5   1 -0.11999999999999999556 47.7403540000  9.7933900000 55.7408990000
76        5   1 -0.11999999999999999556 47.8371300000 11.6729830000 54.5737010000
77        5   2 -0.40000000000000002220 44.7162750000 11.6496320000 53.6206670000
78        5   3  0.23999999999999999112 46.3803970000  9.9747590000 53.8020360000
79        5   3  0.14000000000000001332 45.6379070000 10.9057980000 52.8564140000
80        5   3  0.08999999999999999667 46.9998850000 10.6814680000 55.0192850000
81        5   3  0.14000000000000001332 43.9421970000 12.5668860000 52.8444890000
82        5   3 -0.17999999999999999334 43.0020850000 13.3038170000 53.7820390000
83        5   4  0.02999999999999999889 46.3745340000 11.5545660000 52.3608270000
84        5   4  0.02999999999999999889 45.1401250000 10.2830060000 52.0975820000
85        5   4  0.14999999999999999445 46.2337300000 11.1219850000 55.6592970000
86        5   4  0.02999999999999999889 44.6162830000 13.2690940000 52.3276270000
87        5   4  0.02999999999999999889 43.3798140000 12.0109390000 52.0770340000
88        5   4  0.05999999999999999778 43.5688960000 13.8574220000 54.5378350000
89        5   4  0.05999999999999999778 42.3877990000 14.0144900000 53.2173990000
90        5   4  0.05999999999999999778 42.3388440000 12.5981630000 54.2923020000
91        6   1 -0.11999999999999999556 19.0708960000 17.8900090000 44.8816580000
92        6   1 -0.11999999999999999556 19.3308510000 19.4013410000 43.2903770000
93        6   1 -0.11999999999999999556 21.3507830000 19.4230590000 45.1016460000
94        6   1 -0.11999999999999999556 20.1034070000 21.2461460000 45.2597530000
95        6   2 -0.40000000000000002220 17.3921610000 19.7254260000 46.2522810000
96        6   3  0.23999999999999999112 19.0331550000 19.2354740000 44.6168970000
97        6   3  0.14000000000000001332 17.6370950000 19.7846180000 44.8654570000
98        6   3  0.08999999999999999667 20.1268490000 19.8914440000 45.4762200000
99        6   3  0.14000000000000001332 16.0999330000 20.2106110000 46.6234250000
100       6   3 -0.17999999999999999334 15.9683900000 20.0993840000 48.1321340000
101       6   4  0.02999999999999999889 17.5993450000 20.8167790000 44.4881710000
102       6   4  0.02999999999999999889 16.9287380000 19.1669430000 44.2925780000
103       6   4  0.14999999999999999445 19.9717480000 19.6969270000 46.5386570000
104       6   4  0.02999999999999999889 15.9926050000 21.2565040000 46.2929390000
105       6   4  0.02999999999999999889 15.3262790000 19.6137710000 46.1139350000
106       6   4  0.05999999999999999778 16.7372070000 20.6991840000 48.6302730000
107       6   4  0.05999999999999999778 14.9839200000 20.4596600000 48.4518830000
108       6   4  0.05999999999999999778 16.0789620000 19.0579910000 48.4506940000
109       7   1 -0.11999999999999999556 12.8725450000 46.7299800000 29.8622690000
110       7   1 -0.11999999999999999556 11.4098550000 47.8319140000 31.0992630000
111       7   1 -0.11999999999999999556 10.5304930000 45.3699040000 30.3736470000
112       7   1 -0.11999999999999999556  9.3854940000 46.9696250000 29.3565620000
113       7   2 -0.40000000000000002220 11.8792580000 48.1082510000 27.5864690000
114       7   3  0.23999999999999999112 11.6669540000 47.3837120000 29.8308770000
115       7   3  0.14000000000000001332 11.7418740000 48.5875490000 28.9048690000
116       7   3  0.08999999999999999667 10.6060350000 46.3466660000 29.4260530000
117       7   3  0.14000000000000001332 11.9678260000 49.1475170000 26.6091840000
118       7   3 -0.17999999999999999334 12.1040570000 48.5007500000 25.2420660000
119       7   4  0.02999999999999999889 10.8229060000 49.1781560000 29.0305890000
120       7   4  0.02999999999999999889 12.6047180000 49.1954230000 29.2170720000
121       7   4  0.14999999999999999445 10.8335860000 45.8981340000 28.4577010000
122       7   4  0.02999999999999999889 11.0645590000 49.7768550000 26.6609220000
123       7   4  0.02999999999999999889 12.8379210000 49.7855120000 26.8333180000
124       7   4  0.05999999999999999778 11.2334170000 47.8730720000 25.0252980000
125       7   4  0.05999999999999999778 12.1795700000 49.2716050000 24.4666300000
126       7   4  0.05999999999999999778 13.0020390000 47.8761030000 25.2014210000
127       8   1 -0.11999999999999999556 12.7368290000 20.1537620000  0.0157490000
128       8   1 -0.11999999999999999556 11.3894750000 19.2507190000  1.5167580000
129       8   1 -0.11999999999999999556 12.3449690000 21.6718540000  2.2825460000
130       8   1 -0.11999999999999999556 13.1947260000 20.0403960000  3.5157730000
131       8   2 -0.40000000000000002220 14.8617890000 18.6132900000  1.1006500000
132       8   3  0.23999999999999999112 12.6969760000 19.5609280000  1.2521800000
133       8   3  0.14000000000000001332 13.5022560000 18.2710370000  1.2466280000
134       8   3  0.08999999999999999667 13.1937700000 20.6055750000  2.2654950000
135       8   3  0.14000000000000001332 15.7341590000 17.4813600000  1.0739810000
136       8   3 -0.17999999999999999334 17.1584230000 17.9854420000  0.9214960000
137       8   4  0.02999999999999999889 13.3139800000 17.7418530000  2.1919540000
138       8   4  0.02999999999999999889 13.1380290000 17.6539400000  0.4111560000
139       8   4  0.14999999999999999445 14.2025020000 20.9465680000  2.0270660000
140       8   4  0.02999999999999999889 15.6158570000 16.9057460000  2.0063460000
141       8   4  0.02999999999999999889 15.4547070000 16.8254520000  0.2337240000
142       8   4  0.05999999999999999778 17.4295380000 18.6318330000  1.7627200000
143       8   4  0.05999999999999999778 17.8558630000 17.1404830000  0.8924710000
144       8   4  0.05999999999999999778 17.2651950000 18.5577270000 -0.0054860000
145       9   1 -0.11999999999999999556 29.6853890000 28.3951900000 42.4732000000
146       9   1 -0.11999999999999999556 30.5307610000 30.4298180000 42.6449920000
147       9   1 -0.11999999999999999556 27.8486460000 30.3676720000 43.0495770000
148       9   1 -0.11999999999999999556 28.3564610000 31.3881720000 41.1508160000
149       9   2 -0.40000000000000002220 29.5762370000 28.7551330000 39.6582320000
150       9   3  0.23999999999999999112 29.7602480000 29.6178850000 41.8557740000
151       9   3  0.14000000000000001332 30.4380300000 29.4858050000 40.5009710000
152       9   3  0.08999999999999999667 28.3279250000 30.1736030000 41.7884930000
153       9   3  0.14000000000000001332 30.1013480000 28.5529180000 38.3443170000
154       9   3 -0.17999999999999999334 29.0797910000 27.7656600000 37.5427410000
155       9   4  0.02999999999999999889 30.6306380000 30.4956650000 40.1108310000
156       9   4  0.02999999999999999889 31.3988550000 28.9721240000 40.6572700000
157       9   4  0.14999999999999999445 27.6624800000 29.5007200000 41.2452830000
158       9   4  0.02999999999999999889 30.3036650000 29.5300220000 37.8763770000
159       9   4  0.02999999999999999889 31.0559570000 28.0067490000 38.4133130000
160       9   4  0.05999999999999999778 28.1364860000 28.3175060000 37.4747440000
161       9   4  0.05999999999999999778 29.4533830000 27.5878880000 36.5278280000
162       9   4  0.05999999999999999778 28.8836990000 26.7985610000 38.0165250000
163      10   1 -0.11999999999999999556 47.0340970000  3.4175330000 11.4048420000
164      10   1 -0.11999999999999999556 47.0448820000  3.1107140000  9.2163210000
165      10   1 -0.11999999999999999556 48.3872980000  5.3441780000  9.9718690000
166      10   1 -0.11999999999999999556 46.5185700000  5.8491420000  8.8960170000
167      10   2 -0.40000000000000002220 44.4866680000  4.6465190000 11.1484880000
168      10   3  0.23999999999999999112 46.5280420000  3.8869620000 10.2193690000
169      10   3  0.14000000000000001332 45.0138790000  3.7483720000 10.1986670000
170      10   3  0.08999999999999999667 47.0272890000  5.3328460000 10.0610360000
171      10   3  0.14000000000000001332 43.0603550000  4.6116760000 11.2346410000
172      10   3 -0.17999999999999999334 42.6248670000  5.6232270000 12.2801030000
173      10   4  0.02999999999999999889 44.6598370000  3.9748340000  9.1825500000
174      10   4  0.02999999999999999889 44.7713380000  2.7018460000 10.4383360000
175      10   4  0.14999999999999999445 46.7116660000  5.9592230000 10.8969180000
176      10   4  0.02999999999999999889 42.6279960000  4.8499630000 10.2492890000
177      10   4  0.02999999999999999889 42.7364580000  3.5947980000 11.5092110000
178      10   4  0.05999999999999999778 42.9460380000  6.6310570000 11.9970660000
179      10   4  0.05999999999999999778 41.5330630000  5.6195140000 12.3758730000
180      10   4  0.05999999999999999778 43.0611750000  5.3797340000 13.2540400000
181      11   1 -0.11999999999999999556 46.2646500000 34.5487270000 53.1832450000
182      11   1 -0.11999999999999999556 44.7430000000 34.8773250000 51.6146540000
183      11   1 -0.11999999999999999556 43.6534610000 34.3627040000 54.0455720000
184      11   1 -0.11999999999999999556 43.3126770000 32.6888460000 52.6360840000
185      11   2 -0.40000000000000002220 46.4504350000 31.8442190000 52.3367010000
186      11   3  0.23999999999999999112 45.3193530000 33.9233040000 52.4105490000
187      11   3  0.14000000000000001332 45.9727140000 32.8838010000 51.5133980000
188      11   3  0.08999999999999999667 44.2651300000 33.3483720000 53.3712600000
189      11   3  0.14000000000000001332 47.0979790000 30.7960240000 51.6121460000
190      11   3 -0.17999999999999999334 47.5548630000 29.7448550000 52.6082280000
191      11   4  0.02999999999999999889 45.2204520000 32.5237410000 50.7967500000
192      11   4  0.02999999999999999889 46.7844170000 33.3820700000 50.9617200000
193      11   4  0.14999999999999999445 44.7103620000 32.6529740000 54.0846010000
194      11   4  0.02999999999999999889 46.3941910000 30.3679200000 50.8799970000
195      11   4  0.02999999999999999889 47.9534510000 31.2119600000 51.0558160000
196      11   4  0.05999999999999999778 46.6985980000 29.3333220000 53.1526850000
197      11   4  0.05999999999999999778 48.0616610000 28.9256960000 52.0853940000
198      11   4  0.05999999999999999778 48.2510100000 30.1799700000 53.3322870000
199      12   1 -0.11999999999999999556  5.8583750000 21.0649390000  3.5671710000
200      12   1 -0.11999999999999999556  6.3261190000 19.2805210000  4.7841120000
201      12   1 -0.11999999999999999556  4.6205300000 20.9846120000  6.0284320000
202      12   1 -0.11999999999999999556  6.6015480000 20.9574450000  7.0180880000
203      12   2 -0.40000000000000002220  8.2535490000 22.2558180000  4.5213550000
204      12   3  0.23999999999999999112  6.5397640000 20.6289470000  4.6750610000
205      12   3  0.14000000000000001332  8.0324350000 20.8638410000  4.5045190000
206      12   3  0.08999999999999999667  5.9268860000 21.3474220000  5.8887630000
207      12   3  0.14000000000000001332  9.6276170000 22.6159900000  4.3625520000
208      12   3 -0.17999999999999999334  9.7275740000 24.1305860000  4.4059740000
209      12   4  0.02999999999999999889  8.5582970000 20.3572260000  5.3266720000
210      12   4  0.02999999999999999889  8.3350370000 20.4074720000  3.5497190000
211      12   4  0.14999999999999999445  5.9952150000 22.4318450000  5.7886510000
212      12   4  0.02999999999999999889 10.2221280000 22.1569460000  5.1690680000
213      12   4  0.02999999999999999889  9.9990210000 22.2225140000  3.4025650000
214      12   4  0.05999999999999999778  9.3615380000 24.5126430000  5.3646360000
215      12   4  0.05999999999999999778 10.7708000000 24.4428450000  4.2818980000
216      12   4  0.05999999999999999778  9.1321130000 24.5770910000  3.6033120000
217      13   1 -0.11999999999999999556 52.9944400000 40.5788820000 33.3870780000
218      13   1 -0.11999999999999999556 51.2630290000 39.3392770000 32.7959180000
219      13   1 -0.11999999999999999556 51.5706320000 41.5322760000 31.2282980000
220      13   1 -0.11999999999999999556 49.7632320000 41.6930860000 32.4979580000
221      13   2 -0.40000000000000002220 51.3508570000 41.8139390000 35.3463600000
222      13   3  0.23999999999999999112 51.6237350000 40.5250440000 33.3787010000
223      13   3  0.14000000000000001332 51.0849250000 40.5418630000 34.8005750000
224      13   3  0.08999999999999999667 51.1352690000 41.6958320000 32.5094750000
225      13   3  0.14000000000000001332 50.8966770000 41.9617410000 36.6935350000
226      13   3 -0.17999999999999999334 51.2355920000 43.3680910000 37.1552670000
227      13   4  0.02999999999999999889 50.0063630000 40.3309130000 34.7640990000
228      13   4  0.02999999999999999889 51.5892400000 39.7378510000 35.3579910000
229      13   4  0.14999999999999999445 51.4871510000 42.6543210000 32.8943660000
230      13   4  0.02999999999999999889 49.8100300000 41.7826400000 36.7354180000
231      13   4  0.02999999999999999889 51.3885520000 41.2076020000 37.3288860000
232      13   4  0.05999999999999999778 50.7389250000 44.1106950000 36.5221440000
233      13   4  0.05999999999999999778 50.9045170000 43.5148590000 38.1897080000
234      13   4  0.05999999999999999778 52.3160370000 43.5371250000 37.1076220000
235      14   1 -0.11999999999999999556 19.5361010000 33.3358300000  7.8594870000
236      14   1 -0.11999999999999999556 18.4423380000 35.0701220000  7.0349910000
237      14   1 -0.11999999999999999556 20.5015110000 35.7945810000  8.6462820000
238      14   1 -0.11999999999999999556 18.5456670000 36.2594510000  9.5753460000
239      14   2 -0.40000000000000002220 17.5744320000 33.1616910000  9.9057150000
240      14   3  0.23999999999999999112 18.6727060000 34.3528820000  8.1787950000
241      14   3  0.14000000000000001332 17.3466610000 33.7884400000  8.6639080000
242      14   3  0.08999999999999999667 19.3897830000 35.2418090000  9.2086040000
243      14   3  0.14000000000000001332 16.3992020000 32.5789750000 10.4734120000
244      14   3 -0.17999999999999999334 16.7782770000 31.9486790000 11.8019100000
245      14   4  0.02999999999999999889 16.6291820000 34.6171850000  8.7506840000
246      14   4  0.02999999999999999889 16.9867150000 33.0803870000  7.9019490000
247      14   4  0.14999999999999999445 19.6738890000 34.6758570000 10.0972250000
248      14   4  0.02999999999999999889 15.6328850000 33.3591930000 10.6099870000
249      14   4  0.02999999999999999889 15.9943300000 31.8250000000  9.7791930000
250      14   4  0.05999999999999999778 17.1745700000 32.7052420000 12.4871450000
251      14   4  0.05999999999999999778 15.8984890000 31.4865940000 12.2641550000
252      14   4  0.05999999999999999778 17.5412620000 31.1774110000 11.6562910000
253      15   1 -0.11999999999999999556  7.6319230000 38.7907160000 30.6501410000
254      15   1 -0.11999999999999999556  8.3227320000 36.6948330000 30.7681880000
255      15   1 -0.11999999999999999556  7.9047610000 37.5224500000 28.2183550000
256      15   1 -0.11999999999999999556  6.3991800000 36.0212510000 28.8382080000
257      15   2 -0.40000000000000002220  4.9873550000 37.8711850000 31.1257940000
258      15   3  0.23999999999999999112  7.2377400000 37.4856580000 30.4976750000
259      15   3  0.14000000000000001332  6.1387750000 37.1453290000 31.4920480000
260      15   3  0.08999999999999999667  6.8273030000 37.3112490000 29.0259340000
261      15   3  0.14000000000000001332  3.8723620000 37.6446070000 31.9909280000
262      15   3 -0.17999999999999999334  2.7049340000 38.4733030000 31.4847140000
263      15   4  0.02999999999999999889  5.9651100000 36.0600810000 31.4573860000
264      15   4  0.02999999999999999889  6.4999110000 37.4191630000 32.4950830000
265      15   4  0.14999999999999999445  6.0249960000 37.9974120000 28.7499860000
266      15   4  0.02999999999999999889  3.6235140000 36.5709700000 31.9941170000
267      15   4  0.02999999999999999889  4.1446630000 37.9317950000 33.0193810000
268      15   4  0.05999999999999999778  2.4376940000 38.1781070000 30.4647020000
269      15   4  0.05999999999999999778  1.8312640000 38.3267630000 32.1300420000
270      15   4  0.05999999999999999778  2.9625170000 39.5371890000 31.4827920000
271      16   1 -0.11999999999999999556 23.6513380000  6.0000990000 27.1303710000
272      16   1 -0.11999999999999999556 23.1433520000  6.0085260000 29.2811280000
273      16   1 -0.11999999999999999556 22.4478080000  3.6955150000 28.0452100000
274      16   1 -0.11999999999999999556 20.6624880000  4.8670820000 28.6322820000
275      16   2 -0.40000000000000002220 21.2200370000  7.3775460000 26.6234850000
276      16   3  0.23999999999999999112 22.6099560000  6.0650480000 28.0209360000
277      16   3  0.14000000000000001332 21.8699400000  7.3853420000 27.8742220000
278      16   3  0.08999999999999999667 21.7339630000  4.8250240000 27.7762470000
279      16   3  0.14000000000000001332 20.4863190000  8.5745950000 26.3556510000
280      16   3 -0.17999999999999999334 19.8336940000  8.4341040000 24.9917520000
281      16   4  0.02999999999999999889 21.1550810000  7.4751650000 28.7049050000
282      16   4  0.02999999999999999889 22.6124440000  8.1942510000 27.9506240000
283      16   4  0.14999999999999999445 21.3687450000  4.7892420000 26.7486280000
284      16   4  0.02999999999999999889 19.7296240000  8.7242290000 27.1428330000
285      16   4  0.02999999999999999889 21.1731770000  9.4360130000 26.3785530000
286      16   4  0.05999999999999999778 19.1493100000  7.5794430000 24.9793010000
287      16   4  0.05999999999999999778 19.2647920000  9.3395440000 24.7514390000
288      16   4  0.05999999999999999778 20.5926340000  8.2833600000 24.2174820000
289      17   1 -0.11999999999999999556 22.4347130000 46.1044320000  6.6520520000
290      17   1 -0.11999999999999999556 21.4212350000 46.7388900000  4.7935040000
291      17   1 -0.11999999999999999556 22.1113610000 48.8281230000  6.3809940000
292      17   1 -0.11999999999999999556 19.9146410000 48.5553590000  6.3131090000
293      17   2 -0.40000000000000002220 19.8797170000 45.6546870000  7.8075790000
294      17   3  0.23999999999999999112 21.2672260000 46.6201180000  6.1492190000
295      17   3  0.14000000000000001332 20.1105500000 45.6700470000  6.4171630000
296      17   3  0.08999999999999999667 21.0895720000 48.0150790000  6.7716500000
297      17   3  0.14000000000000001332 18.8121000000 44.7881870000  8.1979320000
298      17   3 -0.17999999999999999334 18.6643370000 44.8699690000  9.7070230000
299      17   4  0.02999999999999999889 19.2322130000 46.0293830000  5.8617120000
300      17   4  0.02999999999999999889 20.3970830000 44.6790090000  6.0334640000
301      17   4  0.14999999999999999445 21.0588400000 47.9663700000  7.8613050000
302      17   4  0.02999999999999999889 17.8838830000 45.0997990000  7.6920230000
303      17   4  0.02999999999999999889 19.0424510000 43.7590460000  7.8783250000
304      17   4  0.05999999999999999778 18.4305460000 45.8942840000 10.0154090000
305      17   4  0.05999999999999999778 17.8546730000 44.2117690000 10.0423420000
306      17   4  0.05999999999999999778 19.5915560000 44.5612500000 10.2001390000
307      18   1 -0.11999999999999999556 56.4260310000 48.7874800000  5.0810740000
308      18   1 -0.11999999999999999556 54.3168690000 48.5341200000  4.4718790000
309      18   1 -0.11999999999999999556 54.5832010000 49.9218510000  6.7880320000
310      18   1 -0.11999999999999999556 53.6881110000 47.9268320000  7.1391720000
311      18   2 -0.40000000000000002220 56.3200740000 46.2077320000  6.2639480000
312      18   3  0.23999999999999999112 55.2590240000 48.1317050000  5.3808320000
313      18   3  0.14000000000000001332 55.4458180000 46.6290150000  5.2417090000
314      18   3  0.08999999999999999667 54.8411830000 48.5835140000  6.7901500000
315      18   3  0.14000000000000001332 56.5865820000 44.8036260000  6.2424080000
316      18   3 -0.17999999999999999334 57.5277170000 44.4832290000  7.3902280000
317      18   4  0.02999999999999999889 54.4600020000 46.1489580000  5.3244080000
318      18   4  0.02999999999999999889 55.8563880000 46.4352740000  4.2390230000
319      18   4  0.14999999999999999445 55.6148780000 48.3627000000  7.5272400000
320      18   4  0.02999999999999999889 55.6390780000 44.2494440000  6.3411610000
321      18   4  0.02999999999999999889 57.0374350000 44.5329550000  5.2740030000
322      18   4  0.05999999999999999778 57.0701350000 44.7503030000  8.3484930000
323      18   4  0.05999999999999999778 57.7578420000 43.4117090000  7.4006350000
324      18   4  0.05999999999999999778 58.4642360000 45.0400110000  7.2847240000
325      19   1 -0.11999999999999999556 11.5391220000 42.6942570000 45.9907200000
326      19   1 -0.11999999999999999556 10.4022070000 43.9366680000 44.5597370000