Generated by pymatgen.io.lammps.data.LammpsData

18125  atoms
17547  bonds
31523  angles
32271  dihedrals

   15  atom types
   14  bond types
   22  angle types
   20  dihedral types

-0.2500000000 60.2500000000  xlo xhi
-0.2500000000 60.2500000000  ylo yhi
-0.2500000000 60.2500000000  zlo zhi

Masses

1   15.99940
2   12.01070
3    1.00794
4   14.01000
5   32.06000
6   16.00000
7   12.01000
8   19.00000
9   16.00000
10  12.01000
11  12.01000
12   1.00800
13  32.06000
14  32.06000
15   6.94100

Pair Coeffs

1     0.1400  2.900000
2     0.0660  3.500000
3     0.0300  2.500000
4       0.17  3.249999
5       0.25  3.549340
6       0.21  2.959566
7      0.066  3.499450
8      0.053  2.948875
9       0.14  2.900000
10     0.066  3.500000
11     0.066  3.500000
12      0.03  2.500000
13  0.344001  3.590322
14  0.344001  3.590322
15  0.165057  1.506000

Bond Coeffs

1   320.00  1.410
2   268.00  1.529
3   340.00  1.090
4   441.80  1.323
5   235.40  1.818
6   637.10  1.442
7   372.00  1.570
8   320.00  1.410
9   320.00  1.380
10  268.00  1.529
11  340.00  1.090
12  340.00  1.090
13  157.87  2.133
14  154.36  2.117


Angle Coeffs

1    60.00  109.50
2    50.00  109.50
3    35.00  109.50
4    37.50  110.70
5    33.00  107.80
6    93.30  107.10
7    82.90  111.80
8   104.00  102.60
9   115.80  118.50
10   94.30  113.60
11   97.50  100.20
12   80.20  125.60
13   60.00  109.50
14   50.00  109.50
15   35.00  109.50
16   37.50  110.70
17   33.00  107.80
18   92.60  111.55
19   35.00  109.50
20   33.00  109.50
21   73.56  112.74
22   73.56  112.74


Dihedral Coeffs

1 3 0.062500000 1 0.000000000 -0.011000000 2 180.000000000 0.280500000 3 0.000000000
2 1 0.370500000 3 0.000000000
3 3 1.119000000 1 0.000000000 -1.163500000 2 180.000000000 -0.341500000 3 0.000000000
4 1 0.234000000 3 0.000000000
5 1 0.150000000 3 0.000000000
6 1 0.173400000 3 0.000000000
7 1 0.158000000 3 0.000000000
8 1 -0.001800000 3 0.000000000
9 3 3.916460000 1 0.000000000 -1.245000000 2 180.000000000 -0.381800000 3 0.000000000
10 3 0.062500000 1 0.000000000 -0.011000000 2 180.000000000 0.280500000 3 0.000000000
11 3 0.062500000 1 0.000000000 -0.011000000 2 180.000000000 0.280500000 3 0.000000000
12 1 0.370500000 3 0.000000000
13 1 0.370500000 3 0.000000000
14 3 -0.533500000 1 0.000000000 -0.783500000 2 180.000000000 0.337500000 3 0.000000000
15 1 0.370500000 3 0.000000000
16 3 1.119000000 1 0.000000000 -1.163500000 2 180.000000000 -0.341500000 3 0.000000000
17 1 0.234000000 3 0.000000000
18 1 0.150000000 3 0.000000000
19 4 5.431700000 1 0.000000000 -3.590000000 2 180.000000000 1.055600000 3 0.000000000 0.058320000 4 180.000000000
20 4 5.431700000 1 0.000000000 -3.590000000 2 180.000000000 1.055600000 3 0.000000000 0.058320000 4 180.000000000


Atoms

1         1   1 -0.40000000000000002220 55.1664340000 14.2612900000 39.8011970000
2         1   1 -0.40000000000000002220 55.1606340000 12.7253890000 42.2940840000
3         1   1 -0.40000000000000002220 55.4521980000 14.3177740000 36.2173030000
4         1   1 -0.40000000000000002220 54.4464500000 11.9145680000 45.0137550000
5         1   1 -0.40000000000000002220 58.1074670000 13.3769970000 33.8995900000
6         1   2  0.14000000000000001332 54.1223010000 14.2278120000 40.7592100000
7         1   2  0.14000000000000001332 54.7010560000 14.2818350000 38.4625240000
8         1   2  0.14000000000000001332 54.7209240000 14.0647100000 42.1421130000
9         1   2  0.14000000000000001332 55.9236650000 14.3085860000 37.5586120000
10        1   2  0.14000000000000001332 56.0763320000 12.5040070000 43.3516440000
11        1   2  0.14000000000000001332 56.4621200000 14.4559540000 35.2271470000
12        1   2  0.14000000000000001332 55.5343170000 12.7797140000 44.7493470000
13        1   2  0.14000000000000001332 57.1702750000 13.1320100000 34.9349190000
14        1   2  0.11000000000000000056 53.8754840000 12.1166650000 46.2932150000
15        1   2  0.11000000000000000056 58.8340660000 12.2223100000 33.5207040000
16        1   3  0.02999999999999999889 53.5407350000 15.1647450000 40.7204580000
17        1   3  0.02999999999999999889 53.4381160000 13.3876010000 40.5604520000
18        1   3  0.02999999999999999889 54.0947890000 13.3888150000 38.2437680000
19        1   3  0.02999999999999999889 54.0776460000 15.1716460000 38.2735570000
20        1   3  0.02999999999999999889 55.5598600000 14.7692050000 42.2597070000
21        1   3  0.02999999999999999889 53.9534950000 14.3094850000 42.8946200000
22        1   3  0.02999999999999999889 56.5226440000 15.2089250000 37.7649460000
23        1   3  0.02999999999999999889 56.5483250000 13.4279800000 37.7672440000
24        1   3  0.02999999999999999889 56.3566830000 11.4498230000 43.2753560000
25        1   3  0.02999999999999999889 56.9829890000 13.1196550000 43.2066480000
26        1   3  0.02999999999999999889 55.9603880000 14.8024530000 34.3184280000
27        1   3  0.02999999999999999889 57.2022610000 15.2166800000 35.5210890000
28        1   3  0.02999999999999999889 56.3508950000 12.6117800000 45.4748830000
29        1   3  0.02999999999999999889 55.2200980000 13.8327530000 44.8515130000
30        1   3  0.02999999999999999889 57.6842810000 12.7530360000 35.8338030000
31        1   3  0.02999999999999999889 56.4279740000 12.3784130000 34.6266410000
32        1   3  0.02999999999999999889 54.6079270000 11.9307770000 47.0965770000
33        1   3  0.02999999999999999889 53.4848100000 13.1422860000 46.4033100000
34        1   3  0.02999999999999999889 53.0497890000 11.4075530000 46.3902170000
35        1   3  0.02999999999999999889 58.1648790000 11.4319280000 33.1439900000
36        1   3  0.02999999999999999889 59.5195140000 12.5221460000 32.7227900000
37        1   3  0.02999999999999999889 59.4162000000 11.8187730000 34.3642580000
38        2   1 -0.40000000000000002220 41.8868950000 14.0031660000 16.6085660000
39        2   1 -0.40000000000000002220 42.1947070000 13.2912140000 19.4320190000
40        2   1 -0.40000000000000002220 42.9306260000 13.5835250000 13.1933540000
41        2   1 -0.40000000000000002220 41.4739300000 12.7166430000 22.2095090000
42        2   1 -0.40000000000000002220 46.0860180000 14.1423340000 11.4502130000
43        2   2  0.14000000000000001332 40.8735650000 13.4882360000 17.4554030000
44        2   2  0.14000000000000001332 41.8365290000 13.4834430000 15.2908430000
45        2   2  0.14000000000000001332 41.1002770000 13.9930690000 18.8664720000
46        2   2  0.14000000000000001332 42.9783330000 14.1161250000 14.5107510000
47        2   2  0.14000000000000001332 42.7778560000 13.8947380000 20.5729150000
48        2   2  0.14000000000000001332 43.8633710000 14.1497900000 12.2829820000
49        2   2  0.14000000000000001332 41.8631470000 14.0095710000 21.7867890000
50        2   2  0.14000000000000001332 45.2616490000 13.5498990000 12.4400060000
51        2   2  0.11000000000000000056 40.6087450000 12.7365190000 23.3297420000
52        2   2  0.11000000000000000056 47.4191120000 13.6659370000 11.4768590000
53        2   3  0.02999999999999999889 39.8808280000 13.8177340000 17.1040230000
54        2   3  0.02999999999999999889 40.8912170000 12.3867610000 17.4587100000
55        2   3  0.02999999999999999889 41.9501990000 12.3880220000 15.2961180000
56        2   3  0.02999999999999999889 40.8753660000 13.7240070000 14.8066860000
57        2   3  0.02999999999999999889 41.3014720000 15.0759230000 18.8364580000
58        2   3  0.02999999999999999889 40.1845850000 13.8259790000 19.4569960000
59        2   3  0.02999999999999999889 42.8576930000 15.2102060000 14.4909630000
60        2   3  0.02999999999999999889 43.9303110000 13.8868090000 15.0110980000
61        2   3  0.02999999999999999889 43.6355090000 13.2654800000 20.8262650000
62        2   3  0.02999999999999999889 43.1465500000 14.9065250000 20.3230660000
63        2   3  0.02999999999999999889 43.4893910000 13.9294630000 11.2784120000
64        2   3  0.02999999999999999889 43.9130570000 15.2439990000 12.3976650000
65        2   3  0.02999999999999999889 42.4177600000 14.5309050000 22.5880500000
66        2   3  0.02999999999999999889 40.9739020000 14.6211480000 21.5559650000
67        2   3  0.02999999999999999889 45.6666400000 13.7518030000 13.4455080000
68        2   3  0.02999999999999999889 45.2095120000 12.4571120000 12.3094180000
69        2   3  0.02999999999999999889 41.0905780000 13.2049940000 24.2042620000
70        2   3  0.02999999999999999889 39.6749470000 13.2804390000 23.1087870000
71        2   3  0.02999999999999999889 40.3691550000 11.6970970000 23.5668480000
72        2   3  0.02999999999999999889 47.4613990000 12.5795220000 11.2970210000
73        2   3  0.02999999999999999889 47.9604070000 14.1827210000 10.6791500000
74        2   3  0.02999999999999999889 47.9043240000 13.8826020000 12.4417070000
75        3   1 -0.40000000000000002220 14.5681980000 39.5463330000 20.8306680000
76        3   1 -0.40000000000000002220 17.0355820000 41.1093730000 20.6246680000
77        3   1 -0.40000000000000002220 12.6799530000 36.9727470000 22.4860620000
78        3   1 -0.40000000000000002220 18.8036910000 43.3930840000 20.1529070000
79        3   1 -0.40000000000000002220 13.2224640000 33.4018110000 22.9973370000
80        3   2  0.14000000000000001332 14.6691490000 40.9590590000 20.8866700000
81        3   2  0.14000000000000001332 13.6167940000 39.0140830000 21.7365270000
82        3   2  0.14000000000000001332 15.8042840000 41.4126870000 19.9905330000
83        3   2  0.14000000000000001332 13.6273050000 37.5027930000 21.5678850000
84        3   2  0.14000000000000001332 18.1701050000 41.1075380000 19.7768480000
85        3   2  0.14000000000000001332 12.4716730000 35.5702530000 22.3907960000
86        3   2  0.14000000000000001332 18.5079770000 42.4505300000 19.1399940000
87        3   2  0.14000000000000001332 13.5633420000 34.7736560000 23.1073170000
88        3   2  0.11000000000000000056 19.1167290000 44.6757950000 19.6424950000
89        3   2  0.11000000000000000056 14.1533190000 32.5435740000 23.6311680000
90        3   3  0.02999999999999999889 13.7269020000 41.4212460000 20.5459060000
91        3   3  0.02999999999999999889 14.8662290000 41.2949280000 21.9171660000
92        3   3  0.02999999999999999889 13.8742310000 39.2754250000 22.7749510000
93        3   3  0.02999999999999999889 12.6076240000 39.4060420000 21.5266270000
94        3   3  0.02999999999999999889 15.7263450000 40.8997890000 19.0185180000
95        3   3  0.02999999999999999889 15.7123450000 42.4977430000 19.8192740000
96        3   3  0.02999999999999999889 13.3546590000 37.2391310000 20.5343930000
97        3   3  0.02999999999999999889 14.6412410000 37.1233660000 21.7606610000
98        3   3  0.02999999999999999889 19.0032000000 40.7889740000 20.4094540000
99        3   3  0.02999999999999999889 18.0405030000 40.3658690000 18.9674020000
100       3   3  0.02999999999999999889 11.5078390000 35.3666180000 22.8673700000
101       3   3  0.02999999999999999889 12.4079180000 35.2507860000 21.3387550000
102       3   3  0.02999999999999999889 19.3789590000 42.3071170000 18.4749920000
103       3   3  0.02999999999999999889 17.6753410000 42.8114900000 18.5119120000
104       3   3  0.02999999999999999889 14.5502910000 34.9598160000 22.6522430000
105       3   3  0.02999999999999999889 13.6131810000 35.0856850000 24.1628300000
106       3   3  0.02999999999999999889 20.0071070000 44.6457940000 18.9923070000
107       3   3  0.02999999999999999889 18.2751300000 45.0978130000 19.0678130000
108       3   3  0.02999999999999999889 19.3216920000 45.3199640000 20.5010160000
109       3   3  0.02999999999999999889 14.2233430000 32.7536340000 24.7107050000
110       3   3  0.02999999999999999889 13.7953000000 31.5200470000 23.4875690000
111       3   3  0.02999999999999999889 15.1567670000 32.6408160000 23.1873860000
112       4   1 -0.40000000000000002220 50.7124100000  6.2638950000 31.1979080000
113       4   1 -0.40000000000000002220 49.0134180000  3.8904090000 31.4292110000
114       4   1 -0.40000000000000002220 53.2515090000  8.0732300000 29.4066990000
115       4   1 -0.40000000000000002220 46.6674490000  2.2445830000 32.0223330000
116       4   1 -0.40000000000000002220 56.7206960000  7.3385310000 28.5509720000
117       4   2  0.14000000000000001332 49.2965950000  6.2534670000 31.2648590000
118       4   2  0.14000000000000001332 51.2256190000  7.2265070000 30.2929010000
119       4   2  0.14000000000000001332 48.8485370000  5.1033750000 32.1445770000
120       4   2  0.14000000000000001332 52.7418300000  7.1138790000 30.3239500000
121       4   2  0.14000000000000001332 49.0139320000  2.7153070000 32.2198320000
122       4   2  0.14000000000000001332 54.6676690000  8.1892230000 29.3847140000
123       4   2  0.14000000000000001332 47.7120270000  2.4283230000 32.9587850000
124       4   2  0.14000000000000001332 55.3249490000  7.0892480000 28.5494010000
125       4   2  0.11000000000000000056 45.4161080000  1.9852160000 32.6312140000
126       4   2  0.11000000000000000056 57.4570780000  6.3907280000 27.7998300000
127       4   3  0.02999999999999999889 48.9291520000  7.2034280000 31.6892700000
128       4   3  0.02999999999999999889 48.8600640000  6.1314750000 30.2608030000
129       4   3  0.02999999999999999889 50.8584850000  7.0401640000 29.2714380000
130       4   3  0.02999999999999999889 50.9210280000  8.2456520000 30.5838980000
131       4   3  0.02999999999999999889 49.4480690000  5.0987260000 33.0689650000
132       4   3  0.02999999999999999889 47.7909590000  5.2531210000 32.4170350000
133       4   3  0.02999999999999999889 53.1118470000  7.3154950000 31.3410040000
134       4   3  0.02999999999999999889 53.0351390000  6.0898650000 30.0508970000
135       4   3  0.02999999999999999889 49.2204490000  1.8982200000 31.5230970000
136       4   3  0.02999999999999999889 49.8301420000  2.7564900000 32.9642650000
137       4   3  0.02999999999999999889 54.8923930000  9.1621560000 28.9369800000
138       4   3  0.02999999999999999889 55.0809500000  8.1782160000 30.4054940000
139       4   3  0.02999999999999999889 47.8548050000  1.5166800000 33.5670010000
140       4   3  0.02999999999999999889 47.4629460000  3.2478080000 33.6548200000
141       4   3  0.02999999999999999889 55.1141950000  6.0933160000 28.9730970000
142       4   3  0.02999999999999999889 54.9196800000  7.1138460000 27.5251420000
143       4   3  0.02999999999999999889 45.4435820000  1.0620190000 33.2340150000
144       4   3  0.02999999999999999889 45.1022830000  2.8201890000 33.2800440000
145       4   3  0.02999999999999999889 44.6875620000  1.8654520000 31.8256720000
146       4   3  0.02999999999999999889 57.1497410000  6.3901600000 26.7415430000
147       4   3  0.02999999999999999889 58.5106510000  6.6768630000 27.8670420000
148       4   3  0.02999999999999999889 57.3326360000  5.3734460000 28.2035110000
149       5   1 -0.40000000000000002220 55.7319930000 53.5284150000 30.6169900000
150       5   1 -0.40000000000000002220 56.6528650000 52.4360280000 33.1728070000
151       5   1 -0.40000000000000002220 54.4259810000 56.3065600000 28.7447210000
152       5   1 -0.40000000000000002220 58.2163030000 50.8546590000 35.0751830000
153       5   1 -0.40000000000000002220 51.3644470000 58.2751100000 28.9878700000
154       5   2  0.14000000000000001332 57.0019660000 52.9519520000 30.8699400000
155       5   2  0.14000000000000001332 55.7872190000 54.6583540000 29.7630400000
156       5   2  0.14000000000000001332 56.8515890000 51.8483190000 31.8979230000
157       5   2  0.14000000000000001332 54.3642480000 55.1669320000 29.5926080000
158       5   2  0.14000000000000001332 56.1159090000 51.5747250000 34.1606230000
159       5   2  0.14000000000000001332 53.1655800000 56.8532040000 28.3813850000
160       5   2  0.14000000000000001332 56.9949800000 50.3871470000 34.5351400000
161       5   2  0.14000000000000001332 52.5827300000 57.7429340000 29.4806460000
162       5   2  0.11000000000000000056 59.0985720000 49.8088330000 35.4381020000
163       5   2  0.11000000000000000056 50.7171300000 59.1324500000 29.9102330000
164       5   3  0.02999999999999999889 57.4203650000 52.5309720000 29.9397340000
165       5   3  0.02999999999999999889 57.7041280000 53.7093170000 31.2532620000
166       5   3  0.02999999999999999889 56.4165990000 55.4498770000 30.1992380000
167       5   3  0.02999999999999999889 56.2084260000 54.3912660000 28.7794940000
168       5   3  0.02999999999999999889 55.9970260000 51.2097820000 31.6223420000
169       5   3  0.02999999999999999889 57.7636740000 51.2292790000 31.8933350000
170       5   3  0.02999999999999999889 53.7372670000 54.3822220000 29.1419590000
171       5   3  0.02999999999999999889 53.9462900000 55.4127860000 30.5795530000
172       5   3  0.02999999999999999889 55.9657290000 52.2040420000 35.0421700000
173       5   3  0.02999999999999999889 55.1334050000 51.1863440000 33.8351720000
174       5   3  0.02999999999999999889 53.3359700000 57.4565340000 27.4844310000
175       5   3  0.02999999999999999889 52.4479860000 56.0572350000 28.1276020000
176       5   3  0.02999999999999999889 56.4499280000 49.7753360000 35.2767670000
177       5   3  0.02999999999999999889 57.1848720000 49.7433090000 33.6590830000
178       5   3  0.02999999999999999889 52.4021150000 57.1643730000 30.4017650000
179       5   3  0.02999999999999999889 53.2973320000 58.5465310000 29.7205040000
180       5   3  0.02999999999999999889 58.6580290000 49.1589480000 36.2126910000
181       5   3  0.02999999999999999889 59.3668820000 49.1869130000 34.5675430000
182       5   3  0.02999999999999999889 60.0026930000 50.2768630000 35.8350080000
183       5   3  0.02999999999999999889 51.3475300000 60.0002630000 30.1630660000
184       5   3  0.02999999999999999889 49.7986640000 59.4838880000 29.4313620000
185       5   3  0.02999999999999999889 50.4592050000 58.6013450000 30.8401300000
186       6   1 -0.40000000000000002220 14.4492620000 19.5285570000  6.1762260000
187       6   1 -0.40000000000000002220 17.2118990000 18.6864860000  5.6942860000
188       6   1 -0.40000000000000002220 11.5205650000 21.2819290000  5.0459330000
189       6   1 -0.40000000000000002220 19.6135680000 17.0145710000  5.7222850000
190       6   1 -0.40000000000000002220 10.8593570000 24.7659640000  4.1905910000
191       6   2  0.14000000000000001332 14.9269630000 18.1940510000  6.1715900000
192       6   2  0.14000000000000001332 13.1703400000 19.6702210000  5.5818090000
193       6   2  0.14000000000000001332 16.3491550000 18.1728430000  6.6953170000
194       6   2  0.14000000000000001332 12.7986310000 21.1430710000  5.6531710000
195       6   2  0.14000000000000001332 18.4905740000 19.0943300000  6.1466130000
196       6   2  0.14000000000000001332 10.9585320000 22.5849340000  5.1217160000
197       6   2  0.14000000000000001332 19.3614540000 17.9835280000  6.7219870000
198       6   2  0.14000000000000001332 11.5300180000 23.5238390000  4.0579620000
199       6   2  0.11000000000000000056 20.4088310000 15.9374890000  6.1819730000
200       6   2  0.11000000000000000056 11.2893830000 25.7346860000  3.2517300000
201       6   3  0.02999999999999999889 14.2912070000 17.5605460000  6.8135020000
202       6   3  0.02999999999999999889 14.9115110000 17.7783560000  5.1515280000
203       6   3  0.02999999999999999889 13.1867910000 19.3400470000  4.5312800000
204       6   3  0.02999999999999999889 12.4163300000 19.0686730000  6.1163390000
205       6   3  0.02999999999999999889 16.4069780000 18.7800010000  7.6129060000
206       6   3  0.02999999999999999889 16.6213650000 17.1348920000  6.9476850000
207       6   3  0.02999999999999999889 12.7661930000 21.4709210000  6.7036100000
208       6   3  0.02999999999999999889 13.5654080000 21.7362270000  5.1341200000
209       6   3  0.02999999999999999889 18.9845770000 19.5218790000  5.2697540000
210       6   3  0.02999999999999999889 18.3901520000 19.8846340000  6.9130390000
211       6   3  0.02999999999999999889  9.8828870000 22.4689490000  4.9570930000
212       6   3  0.02999999999999999889 11.1068890000 23.0217300000  6.1217730000
213       6   3  0.02999999999999999889 20.3067830000 18.4345340000  7.0746210000
214       6   3  0.02999999999999999889 18.8786270000 17.5148820000  7.5968080000
215       6   3  0.02999999999999999889 12.6158020000 23.6594010000  4.1940200000
216       6   3  0.02999999999999999889 11.3658190000 23.0901510000  3.0585080000
217       6   3  0.02999999999999999889 21.3999390000 16.2827810000  6.5209380000
218       6   3  0.02999999999999999889 19.9200270000 15.4006580000  7.0123520000
219       6   3  0.02999999999999999889 20.5367470000 15.2527440000  5.3400810000
220       6   3  0.02999999999999999889 11.1079380000 25.4003560000  2.2174520000
221       6   3  0.02999999999999999889 10.7114010000 26.6437630000  3.4412660000
222       6   3  0.02999999999999999889 12.3618490000 25.9579610000  3.3669280000
223       7   1 -0.40000000000000002220 34.6729860000 21.6393090000  9.5985110000
224       7   1 -0.40000000000000002220 35.2660050000 20.5634320000 12.2563930000
225       7   1 -0.40000000000000002220 32.4335320000 23.4287810000  7.4278480000
226       7   1 -0.40000000000000002220 36.8121350000 19.7666060000 14.6098260000
227       7   1 -0.40000000000000002220 29.0118980000 22.8309070000  6.3132740000
228       7   2  0.14000000000000001332 35.8156620000 21.9349190000 10.3833880000
229       7   2  0.14000000000000001332 34.1640130000 22.7630510000  8.9005210000
230       7   2  0.14000000000000001332 36.1929400000 20.7108260000 11.1937140000
231       7   2  0.14000000000000001332 32.9470490000 22.2962540000  8.1171660000
232       7   2  0.14000000000000001332 35.2369760000 19.2838000000 12.8627310000
233       7   2  0.14000000000000001332 31.3513090000 23.1560340000  6.5481620000
234       7   2  0.14000000000000001332 36.5269960000 18.8643650000 13.5579220000
235       7   2  0.14000000000000001332 30.0180600000 23.0432180000  7.2893970000
236       7   2  0.11000000000000000056 38.0071880000 19.4530050000 15.3007430000
237       7   2  0.11000000000000000056 27.7137060000 22.7160180000  6.8667200000
238       7   3  0.02999999999999999889 36.6608300000 22.2177630000  9.7328080000
239       7   3  0.02999999999999999889 35.6112940000 22.7728150000 11.0687590000
240       7   3  0.02999999999999999889 33.8730960000 23.5616480000  9.6008840000
241       7   3  0.02999999999999999889 34.9179140000 23.1743830000  8.2087460000
242       7   3  0.02999999999999999889 36.1834410000 19.8249870000 10.5386160000
243       7   3  0.02999999999999999889 37.2149880000 20.8426820000 11.5850730000
244       7   3  0.02999999999999999889 33.2390130000 21.5089130000  7.4052600000
245       7   3  0.02999999999999999889 32.2092520000 21.8708120000  8.8127580000
246       7   3  0.02999999999999999889 34.4298300000 19.3310090000 13.5989420000
247       7   3  0.02999999999999999889 34.9835170000 18.5118810000 12.1130830000
248       7   3  0.02999999999999999889 31.3020780000 23.9950710000  5.8473350000
249       7   3  0.02999999999999999889 31.5342350000 22.2368500000  5.9697560000
250       7   3  0.02999999999999999889 36.3899800000 17.8400600000 13.9496260000
251       7   3  0.02999999999999999889 37.3681150000 18.8297000000 12.8442150000
252       7   3  0.02999999999999999889 30.0359400000 22.2069780000  8.0078670000
253       7   3  0.02999999999999999889 29.8320080000 23.9707020000  7.8542990000
254       7   3  0.02999999999999999889 37.9539120000 18.4554500000 15.7681440000
255       7   3  0.02999999999999999889 38.8811340000 19.4805890000 14.6283570000
256       7   3  0.02999999999999999889 38.1326840000 20.2078100000 16.0808330000
257       7   3  0.02999999999999999889 27.4245140000 23.6319960000  7.4068880000
258       7   3  0.02999999999999999889 27.0227420000 22.5577830000  6.0336920000
259       7   3  0.02999999999999999889 27.6459870000 21.8621870000  7.5593190000
260       8   1 -0.40000000000000002220 24.1790310000 48.5931870000 58.9188910000
261       8   1 -0.40000000000000002220 23.0183680000 51.1831970000 58.1990130000
262       8   1 -0.40000000000000002220 24.4662800000 45.0641440000 58.2923980000
263       8   1 -0.40000000000000002220 22.8045660000 54.0721910000 57.7841640000
264       8   1 -0.40000000000000002220 22.0698310000 42.3138240000 58.3012460000
265       8   2  0.14000000000000001332 24.8993100000 49.7684400000 58.5885860000
266       8   2  0.14000000000000001332 24.7630510000 47.4108530000 58.3992290000
267       8   2  0.14000000000000001332 24.1218810000 50.9790310000 59.0654980000
268       8   2  0.14000000000000001332 23.8828890000 46.2462010000 58.8251950000
269       8   2  0.14000000000000001332 21.9903810000 52.0120000000 58.7111390000
270       8   2  0.14000000000000001332 23.8349320000 43.8533610000 58.6859080000
271       8   2  0.14000000000000001332 22.3964990000 53.4544770000 58.9898810000
272       8   2  0.14000000000000001332 22.5772050000 43.5638090000 57.8649380000
273       8   2  0.11000000000000000056 23.2118200000 55.4164740000 57.9599750000
274       8   2  0.11000000000000000056 20.8991730000 41.9158870000 57.6113100000
275       8   3  0.02999999999999999889 25.8903700000 49.7557540000 59.0735640000
276       8   3  0.02999999999999999889 25.0481360000 49.8409010000 57.4994720000
277       8   3  0.02999999999999999889 24.8214470000 47.4519350000 57.3002300000
278       8   3  0.02999999999999999889 25.7845740000 47.2690120000 58.7897240000
279       8   3  0.02999999999999999889 23.7827020000 50.8080310000 60.0997470000
280       8   3  0.02999999999999999889 24.7885830000 51.8568670000 59.0590680000
281       8   3  0.02999999999999999889 23.8361990000 46.1939900000 59.9238550000
282       8   3  0.02999999999999999889 22.8625270000 46.4055860000 58.4475010000
283       8   3  0.02999999999999999889 21.2036960000 51.9994770000 57.9517370000
284       8   3  0.02999999999999999889 21.5835390000 51.5825760000 59.6450270000
285       8   3  0.02999999999999999889 24.5640680000 43.0546350000 58.5186870000
286       8   3  0.02999999999999999889 23.5838100000 43.8689820000 59.7581060000
287       8   3  0.02999999999999999889 21.5256120000 53.9803120000 59.4216900000
288       8   3  0.02999999999999999889 23.2072340000 53.5001180000 59.7373350000
289       8   3  0.02999999999999999889 21.8218360000 44.3540720000 58.0088740000
290       8   3  0.02999999999999999889 22.8359200000 43.5340200000 56.7943620000
291       8   3  0.02999999999999999889 22.3907310000 56.0394640000 58.3525500000
292       8   3  0.02999999999999999889 24.0705510000 55.4912210000 58.6481910000
293       8   3  0.02999999999999999889 23.5078320000 55.7917310000 56.9773360000
294       8   3  0.02999999999999999889 21.0867230000 41.8072350000 56.5308250000
295       8   3  0.02999999999999999889 20.5982050000 40.9478500000 58.0220750000
296       8   3  0.02999999999999999889 20.0815180000 42.6396240000 57.7560600000
297       9   1 -0.40000000000000002220  4.7565680000 33.5498160000 28.1616410000
298       9   1 -0.40000000000000002220  6.1638630000 35.5594510000 26.5633910000
299       9   1 -0.40000000000000002220  2.0983440000 32.7349820000 30.4417800000
300       9   1 -0.40000000000000002220  7.6558020000 36.7428740000 24.3412920000
301       9   1 -0.40000000000000002220  1.2648030000 33.8393620000 33.8171110000
302       9   2  0.14000000000000001332  4.9759310000 33.5001900000 26.7621620000
303       9   2  0.14000000000000001332  3.4769690000 33.0777980000 28.5474740000
304       9   2  0.14000000000000001332  6.3057970000 34.1538550000 26.4434910000
305       9   2  0.14000000000000001332  3.3871530000 33.1988940000 30.0606880000
306       9   2  0.14000000000000001332  7.3753940000 36.2834490000 26.6815630000
307       9   2  0.14000000000000001332  1.8742060000 32.6699860000 31.8435590000
308       9   2  0.14000000000000001332  8.3035810000 36.1989120000 25.4754570000
309       9   2  0.14000000000000001332  1.5225050000 34.0353280000 32.4367340000
310       9   2  0.11000000000000000056  8.4499200000 36.6900730000 23.1706290000
311       9   2  0.11000000000000000056  0.9149940000 35.0328950000 34.4938080000
312       9   3  0.02999999999999999889  4.9912250000 32.4523220000 26.4167590000
313       9   3  0.02999999999999999889  4.1746090000 34.0303170000 26.2232590000
314       9   3  0.02999999999999999889  2.6799240000 33.6750150000 28.0774230000
315       9   3  0.02999999999999999889  3.3360940000 32.0257920000 28.2482230000
316       9   3  0.02999999999999999889  7.0718900000 33.7757420000 27.1392530000
317       9   3  0.02999999999999999889  6.6020110000 33.8793120000 25.4178140000
318       9   3  0.02999999999999999889  4.1734010000 32.5898210000 30.5327090000
319       9   3  0.02999999999999999889  3.5474470000 34.2473860000 30.3507990000
320       9   3  0.02999999999999999889  7.0765170000 37.3241990000 26.8339810000
321       9   3  0.02999999999999999889  7.9367000000 35.9455070000 27.5719580000
322       9   3  0.02999999999999999889  1.0321590000 31.9869460000 31.9918090000
323       9   3  0.02999999999999999889  2.7498960000 32.2524070000 32.3648160000
324       9   3  0.02999999999999999889  9.2232980000 36.7658490000 25.7080710000
325       9   3  0.02999999999999999889  8.6054600000 35.1553790000 25.2805980000
326       9   3  0.02999999999999999889  2.3512750000 34.7497310000 32.3004040000
327       9   3  0.02999999999999999889  0.6370110000 34.4422840000 31.9226900000
328       9   3  0.02999999999999999889  9.3823200000 37.2672900000 23.2883880000
329       9   3  0.02999999999999999889  8.7098950000 35.6513340000 22.9059050000
330       9   3  0.02999999999999999889  7.8577490000 37.1270420000 22.3629080000
331       9   3  0.02999999999999999889 -0.0010010000 35.4792470000 34.0741030000
332       9   3  0.02999999999999999889  0.7378790000 34.7682070000 35.5402200000