Generated by pymatgen.io.lammps.data.LammpsData

16847  atoms
16488  bonds
28208  angles
31467  dihedrals
 2730  impropers

   16  atom types
   15  bond types
   22  angle types
   21  dihedral types
    3  improper types

-0.2500000000 60.2500000000  xlo xhi
-0.2500000000 60.2500000000  ylo yhi
-0.2500000000 60.2500000000  zlo zhi

Masses

1   12.01070
2   12.01070
3    1.00794
4    1.00794
5   14.01000
6   32.06000
7   16.00000
8   12.01000
9   19.00000
10  16.00000
11  12.01000
12  12.01000
13   1.00800
14  32.06000
15  32.06000
16   6.94100

Pair Coeffs

1     0.0700  3.550000
2     0.0660  3.500000
3     0.0300  2.420000
4     0.0300  2.500000
5       0.17  3.249999
6       0.25  3.549340
7       0.21  2.959566
8      0.066  3.499450
9      0.053  2.948875
10      0.14  2.900000
11     0.066  3.500000
12     0.066  3.500000
13      0.03  2.500000
14  0.344001  3.590322
15  0.344001  3.590322
16  0.165057  1.506000

Bond Coeffs

1   469.00  1.400
2   317.00  1.510
3   367.00  1.080
4   340.00  1.090
5   441.80  1.323
6   235.40  1.818
7   637.10  1.442
8   372.00  1.570
9   320.00  1.410
10  320.00  1.380
11  268.00  1.529
12  340.00  1.090
13  340.00  1.090
14  157.87  2.133
15  154.36  2.117


Angle Coeffs

1    63.00  120.00
2    70.00  120.00
3    35.00  120.00
4    35.00  109.50
5    33.00  107.80
6    93.30  107.10
7    82.90  111.80
8   104.00  102.60
9   115.80  118.50
10   94.30  113.60
11   97.50  100.20
12   80.20  125.60
13   60.00  109.50
14   50.00  109.50
15   35.00  109.50
16   37.50  110.70
17   33.00  107.80
18   92.60  111.55
19   35.00  109.50
20   33.00  109.50
21   73.56  112.74
22   73.56  112.74


Dihedral Coeffs

1 1 3.625000000 2 180.000000000
2 1 3.625000000 2 180.000000000
3 1 3.625000000 2 180.000000000
4 1 3.625000000 2 180.000000000
5 1 0.000000000 1 0.000000000
6 1 3.625000000 2 180.000000000
7 1 0.173400000 3 0.000000000
8 1 0.158000000 3 0.000000000
9 1 -0.001800000 3 0.000000000
10 3 3.916460000 1 0.000000000 -1.245000000 2 180.000000000 -0.381800000 3 0.000000000
11 3 0.062500000 1 0.000000000 -0.011000000 2 180.000000000 0.280500000 3 0.000000000
12 3 0.062500000 1 0.000000000 -0.011000000 2 180.000000000 0.280500000 3 0.000000000
13 1 0.370500000 3 0.000000000
14 1 0.370500000 3 0.000000000
15 3 -0.533500000 1 0.000000000 -0.783500000 2 180.000000000 0.337500000 3 0.000000000
16 1 0.370500000 3 0.000000000
17 3 1.119000000 1 0.000000000 -1.163500000 2 180.000000000 -0.341500000 3 0.000000000
18 1 0.234000000 3 0.000000000
19 1 0.150000000 3 0.000000000
20 4 5.431700000 1 0.000000000 -3.590000000 2 180.000000000 1.055600000 3 0.000000000 0.058320000 4 180.000000000
21 4 5.431700000 1 0.000000000 -3.590000000 2 180.000000000 1.055600000 3 0.000000000 0.058320000 4 180.000000000


Improper Coeffs

1 4.000000000 -1 2
2 1.100000000 -1 2
3 1.100000000 -1 2


Atoms

1         1   1 -0.11500000000000000500 28.4492380000 39.5518690000 49.7952170000
2         1   1 -0.11500000000000000500 27.1319840000 39.3104160000 50.2117090000
3         1   1 -0.11500000000000000500 29.3257220000 38.4615980000 49.6996640000
4         1   2 -0.06500000000000000222 28.9033340000 40.9465910000 49.4272630000
5         1   1 -0.11500000000000000500 26.6996350000 38.0172390000 50.5204310000
6         1   1 -0.11500000000000000500 28.8992990000 37.1657910000 50.0055630000
7         1   1 -0.11500000000000000500 27.5826140000 36.9380120000 50.4168870000
8         1   3  0.11500000000000000500 26.4375820000 40.1444510000 50.2983650000
9         1   3  0.11500000000000000500 30.3536150000 38.6288850000 49.3832350000
10        1   4  0.05999999999999999778 29.9720850000 41.0872600000 49.6265480000
11        1   4  0.05999999999999999778 28.7409400000 41.1446270000 48.3586800000
12        1   4  0.05999999999999999778 28.3516120000 41.7103740000 49.9875200000
13        1   3  0.11500000000000000500 25.6744040000 37.8540530000 50.8439390000
14        1   3  0.11500000000000000500 29.5975870000 36.3356190000 49.9266520000
15        1   3  0.11500000000000000500 27.2497470000 35.9318960000 50.6588090000
16        2   1 -0.11500000000000000500 40.6403840000 14.7808870000 12.8306440000
17        2   1 -0.11500000000000000500 39.5424220000 13.9132170000 12.9231140000
18        2   1 -0.11500000000000000500 40.3917650000 16.1541590000 12.6951590000
19        2   2 -0.06500000000000000222 42.0553000000 14.2528070000 12.9080440000
20        2   1 -0.11500000000000000500 38.2330320000 14.4017180000 12.8855970000
21        2   1 -0.11500000000000000500 39.0848360000 16.6492460000 12.6583970000
22        2   1 -0.11500000000000000500 37.9988420000 15.7739630000 12.7544450000
23        2   3  0.11500000000000000500 39.7141950000 12.8427350000 13.0225020000
24        2   3  0.11500000000000000500 41.2304110000 16.8434920000 12.6166160000
25        2   4  0.05999999999999999778 42.7500360000 14.8787190000 12.3359360000
26        2   4  0.05999999999999999778 42.4122030000 14.2334170000 13.9471320000
27        2   4  0.05999999999999999778 42.1247460000 13.2296680000 12.5207300000
28        2   3  0.11500000000000000500 37.3969930000 13.7100330000 12.9562870000
29        2   3  0.11500000000000000500 38.9160440000 17.7182670000 12.5501220000
30        2   3  0.11500000000000000500 36.9817380000 16.1561580000 12.7224100000
31        3   1 -0.11500000000000000500 48.5508020000 26.8010740000 58.0500220000
32        3   1 -0.11500000000000000500 47.8538500000 27.7655510000 57.3077530000
33        3   1 -0.11500000000000000500 49.9454100000 26.7414720000 57.9175110000
34        3   2 -0.06500000000000000222 47.8209540000 25.8714760000 58.9934290000
35        3   1 -0.11500000000000000500 48.5291420000 28.6486670000 56.4600350000
36        3   1 -0.11500000000000000500 50.6268580000 27.6225570000 57.0726190000
37        3   1 -0.11500000000000000500 49.9206270000 28.5814760000 56.3401980000
38        3   3  0.11500000000000000500 46.7699550000 27.8240320000 57.3918350000
39        3   3  0.11500000000000000500 50.5040420000 25.9965530000 58.4811630000
40        3   4  0.05999999999999999778 48.3369570000 24.9090010000 59.0889020000
41        3   4  0.05999999999999999778 47.7515320000 26.3067420000 60.0000000000
42        3   4  0.05999999999999999778 46.7979070000 25.6742100000 58.6526810000
43        3   3  0.11500000000000000500 47.9677860000 29.3866740000 55.8920470000
44        3   3  0.11500000000000000500 51.7088510000 27.5561000000 56.9837660000
45        3   3  0.11500000000000000500 50.4478820000 29.2652210000 55.6798240000
46        4   1 -0.11500000000000000500 45.4786570000 16.6930090000 31.1747160000
47        4   1 -0.11500000000000000500 45.3335990000 17.6416230000 30.1519680000
48        4   1 -0.11500000000000000500 46.7656860000 16.2145960000 31.4588320000
49        4   2 -0.06500000000000000222 44.2829100000 16.2228680000 31.9722130000
50        4   1 -0.11500000000000000500 46.4415770000 18.1033390000 29.4352080000
51        4   1 -0.11500000000000000500 47.8779570000 16.6732460000 30.7467790000
52        4   1 -0.11500000000000000500 47.7202610000 17.6213060000 29.7313770000
53        4   3  0.11500000000000000500 44.3417780000 18.0209540000 29.9117280000
54        4   3  0.11500000000000000500 46.8985970000 15.4741840000 32.2454700000
55        4   4  0.05999999999999999778 44.4159830000 15.1946100000 32.3281730000
56        4   4  0.05999999999999999778 44.1245980000 16.8569730000 32.8555630000
57        4   4  0.05999999999999999778 43.3630840000 16.2581440000 31.3769610000
58        4   3  0.11500000000000000500 46.3049270000 18.8371590000 28.6445000000
59        4   3  0.11500000000000000500 48.8665460000 16.2860030000 30.9829030000
60        4   3  0.11500000000000000500 48.5830940000 17.9767050000 29.1738750000
61        5   1 -0.11500000000000000500 57.8229440000 20.3963780000 52.6689190000
62        5   1 -0.11500000000000000500 58.1836680000 20.5693280000 54.0131240000
63        5   1 -0.11500000000000000500 57.4646840000 21.5305890000 51.9264510000
64        5   2 -0.06500000000000000222 57.8512600000 19.0269810000 52.0279850000
65        5   1 -0.11500000000000000500 58.1908550000 21.8384280000 54.5995310000
66        5   1 -0.11500000000000000500 57.4711530000 22.8026230000 52.5064630000
67        5   1 -0.11500000000000000500 57.8355520000 22.9619460000 53.8468210000
68        5   3  0.11500000000000000500 58.4590900000 19.7004430000 54.6085220000
69        5   3  0.11500000000000000500 57.1765560000 21.4167310000 50.8830450000
70        5   4  0.05999999999999999778 57.1067210000 18.9419420000 51.2278840000
71        5   4  0.05999999999999999778 58.8345980000 18.8205480000 51.5831350000
72        5   4  0.05999999999999999778 57.6525030000 18.2357580000 52.7601810000
73        5   3  0.11500000000000000500 58.4714680000 21.9483310000 55.6443100000
74        5   3  0.11500000000000000500 57.1870050000 23.6678540000 51.9117750000
75        5   3  0.11500000000000000500 57.8378040000 23.9495130000 54.3010280000
76        6   1 -0.11500000000000000500 45.8969440000 40.4568960000 48.9477140000
77        6   1 -0.11500000000000000500 44.5159800000 40.5610870000 48.7263420000
78        6   1 -0.11500000000000000500 46.4646790000 39.1763030000 49.0093900000
79        6   2 -0.06500000000000000222 46.7564590000 41.6936760000 49.0835540000
80        6   1 -0.11500000000000000500 43.7238490000 39.4201920000 48.5668760000
81        6   1 -0.11500000000000000500 45.6783870000 38.0314640000 48.8493410000
82        6   1 -0.11500000000000000500 44.3031890000 38.1489970000 48.6263100000
83        6   3  0.11500000000000000500 44.0548510000 41.5463040000 48.6813430000
84        6   3  0.11500000000000000500 47.5338770000 39.0740900000 49.1855810000
85        6   4  0.05999999999999999778 47.6230940000 41.5121560000 49.7298710000
86        6   4  0.05999999999999999778 47.1395900000 42.0164480000 48.1055520000
87        6   4  0.05999999999999999778 46.1905640000 42.5327680000 49.5046690000
88        6   3  0.11500000000000000500 42.6546530000 39.5249980000 48.3988870000
89        6   3  0.11500000000000000500 46.1402280000 37.0482140000 48.9035930000
90        6   3  0.11500000000000000500 43.6891560000 37.2602330000 48.5052300000
91        7   1 -0.11500000000000000500 25.4717810000  5.9642050000 23.1887660000
92        7   1 -0.11500000000000000500 25.3392740000  7.2313880000 23.7749530000
93        7   1 -0.11500000000000000500 26.0922450000  4.9502910000 23.9324370000
94        7   2 -0.06500000000000000222 24.9303800000  5.6895610000 21.8037390000
95        7   1 -0.11500000000000000500 25.8087640000  7.4795360000 25.0682200000
96        7   1 -0.11500000000000000500 26.5626420000  5.1914950000 25.2266840000
97        7   1 -0.11500000000000000500 26.4218430000  6.4584880000 25.8008200000
98        7   3  0.11500000000000000500 24.8660240000  8.0338930000 23.2116260000
99        7   3  0.11500000000000000500 26.2093310000  3.9613100000 23.4932520000
100       7   4  0.05999999999999999778 25.5128550000  4.9156480000 21.2904050000
101       7   4  0.05999999999999999778 23.8898810000  5.3392830000 21.8498590000
102       7   4  0.05999999999999999778 24.9430930000  6.5913000000 21.1805580000
103       7   3  0.11500000000000000500 25.6976130000  8.4706260000 25.5015470000
104       7   3  0.11500000000000000500 27.0429880000  4.3903460000 25.7838610000
105       7   3  0.11500000000000000500 26.7900850000  6.6494490000 26.8055730000
106       8   1 -0.11500000000000000500 26.5780310000 49.0985440000  5.8035670000
107       8   1 -0.11500000000000000500 27.3699740000 48.1391690000  6.4511390000
108       8   1 -0.11500000000000000500 25.2710290000 48.7445130000  5.4396250000
109       8   2 -0.06500000000000000222 27.1084420000 50.4888640000  5.5342730000
110       8   1 -0.11500000000000000500 26.8711570000 46.8636090000  6.7316160000
111       8   1 -0.11500000000000000500 24.7657010000 47.4711590000  5.7184450000
112       8   1 -0.11500000000000000500 25.5644860000 46.5246650000  6.3671520000
113       8   3  0.11500000000000000500 28.3897200000 48.3923190000  6.7363580000
114       8   3  0.11500000000000000500 24.6422080000 49.4732790000  4.9315310000
115       8   4  0.05999999999999999778 26.6554590000 50.9252110000  4.6364210000
116       8   4  0.05999999999999999778 26.8880660000 51.1638070000  6.3729300000
117       8   4  0.05999999999999999778 28.1959360000 50.4850170000  5.3964640000
118       8   3  0.11500000000000000500 27.5042040000 46.1348880000  7.2322180000
119       8   3  0.11500000000000000500 23.7495750000 47.2180230000  5.4244570000
120       8   3  0.11500000000000000500 25.1750490000 45.5327510000  6.5817300000
121       9   1 -0.11500000000000000500 38.2628170000 43.2526900000 32.4174300000
122       9   1 -0.11500000000000000500 38.9535830000 42.2903210000 31.6666900000
123       9   1 -0.11500000000000000500 37.4960950000 44.2051940000 31.7311950000
124       9   2 -0.06500000000000000222 38.3169770000 43.2433760000 33.9286630000
125       9   1 -0.11500000000000000500 38.8786460000 42.2756770000 30.2707280000
126       9   1 -0.11500000000000000500 37.4158390000 44.1952020000 30.3354930000
127       9   1 -0.11500000000000000500 38.1070040000 43.2286380000 29.5987610000
128       9   3  0.11500000000000000500 39.5595130000 41.5458060000 32.1803670000
129       9   3  0.11500000000000000500 36.9566870000 44.9636650000 32.2954970000
130       9   4  0.05999999999999999778 38.2046600000 44.2527350000 34.3413500000
131       9   4  0.05999999999999999778 37.5098170000 42.6268050000 34.3479400000
132       9   4  0.05999999999999999778 39.2647670000 42.8319890000 34.2948660000
133       9   3  0.11500000000000000500 39.4249130000 41.5216760000 29.7090690000
134       9   3  0.11500000000000000500 36.8168720000 44.9455970000 29.8244490000
135       9   3  0.11500000000000000500 38.0491010000 43.2210830000 28.5133170000
136      10   1 -0.11500000000000000500 31.1443350000 58.7206930000 17.7820130000
137      10   1 -0.11500000000000000500 29.8577600000 59.2626690000 17.6481860000
138      10   1 -0.11500000000000000500 31.3983360000 57.8745380000 18.8708420000
139      10   2 -0.06500000000000000222 32.2202330000 59.0147920000 16.7608390000
140      10   1 -0.11500000000000000500 28.8513630000 58.9659320000 18.5721190000
141      10   1 -0.11500000000000000500 30.3959880000 57.5726890000 19.7975100000
142      10   1 -0.11500000000000000500 29.1166030000 58.1172040000 19.6511990000
143      10   3  0.11500000000000000500 29.6419860000 59.9269830000 16.8130540000
144      10   3  0.11500000000000000500 32.3919330000 57.4479660000 18.9952510000
145      10   4  0.05999999999999999778 33.2194340000 58.9908530000 17.2111230000
146      10   4  0.05999999999999999778 32.2083840000 58.2720260000 15.9511370000
147      10   4  0.05999999999999999778 32.0801760000 59.9999970000 16.3010540000
148      10   3  0.11500000000000000500 27.8618160000 59.3997880000 18.4498420000
149      10   3  0.11500000000000000500 30.6167520000 56.9157910000 20.6358220000
150      10   3  0.11500000000000000500 28.3366290000 57.8869130000 20.3724510000
151      11   1 -0.11500000000000000500 40.7512100000 37.9747560000  0.3909860000
152      11   1 -0.11500000000000000500 39.7529850000 38.9462880000  0.2279030000
153      11   1 -0.11500000000000000500 42.0866840000 38.3981580000  0.4483010000
154      11   2 -0.06500000000000000222 40.3944680000 36.5122030000  0.5342340000
155      11   1 -0.11500000000000000500 40.0771170000 40.3026270000  0.1287930000
156      11   1 -0.11500000000000000500 42.4174270000 39.7530430000  0.3512340000
157      11   1 -0.11500000000000000500 41.4126100000 40.7120180000  0.1917370000
158      11   3  0.11500000000000000500 38.7103380000 38.6374490000  0.1747690000
159      11   3  0.11500000000000000500 42.8764950000 37.6590820000  0.5692970000
160      11   4  0.05999999999999999778 41.1888330000 35.8645200000  0.1453620000
161      11   4  0.05999999999999999778 40.2419570000 36.2454670000  1.5892470000
162      11   4  0.05999999999999999778 39.4685850000 36.2695960000 -0.0001170000
163      11   3  0.11500000000000000500 39.2866630000 41.0381400000 -0.0000050000
164      11   3  0.11500000000000000500 43.4605230000 40.0579840000  0.3957310000
165      11   3  0.11500000000000000500 41.6675590000 41.7657240000  0.1123430000
166      12   1 -0.11500000000000000500 38.2791900000  2.0215120000 43.9697630000
167      12   1 -0.11500000000000000500 39.6702270000  2.1397520000 44.1037730000
168      12   1 -0.11500000000000000500 37.4689190000  2.9919120000 44.5762530000
169      12   2 -0.06500000000000000222 37.6701850000  0.8955030000 43.1647410000
170      12   1 -0.11500000000000000500 40.2376330000  3.1984010000 44.8192130000
171      12   1 -0.11500000000000000500 38.0300350000  4.0537850000 45.2918650000
172      12   1 -0.11500000000000000500 39.4184580000  4.1618910000 45.4156540000
173      12   3  0.11500000000000000500 40.3165870000  1.3930360000 43.6455700000
174      12   3  0.11500000000000000500 36.3867880000  2.9149980000 44.4882020000
175      12   4  0.05999999999999999778 36.6802280000  0.6185510000 43.5455480000
176      12   4  0.05999999999999999778 37.5463530000  1.1859540000 42.1122370000
177      12   4  0.05999999999999999778 38.3021510000 -0.0000000000 43.1832410000
178      12   3  0.11500000000000000500 41.3187520000  3.2684190000 44.9123050000
179      12   3  0.11500000000000000500 37.3816610000  4.7934600000 45.7560970000
180      12   3  0.11500000000000000500 39.8569590000  4.9845850000 45.9746620000
181      13   1 -0.11500000000000000500 20.7222970000  2.1462780000 18.9259390000
182      13   1 -0.11500000000000000500 22.0586580000  2.4666190000 19.2060170000
183      13   1 -0.11500000000000000500 19.7548760000  3.1512460000 19.0680080000
184      13   2 -0.06500000000000000222 20.3391650000  0.7624420000 18.4515430000
185      13   1 -0.11500000000000000500 22.4208210000  3.7542990000 19.6125360000
186      13   1 -0.11500000000000000500 20.1106000000  4.4412650000 19.4727750000
187      13   1 -0.11500000000000000500 21.4468370000  4.7485800000 19.7461950000
188      13   3  0.11500000000000000500 22.8241140000  1.6986680000 19.1078100000
189      13   3  0.11500000000000000500 18.7114740000  2.9212500000 18.8604270000
190      13   4  0.05999999999999999778 19.3208180000  0.4990520000 18.7602910000
191      13   4  0.05999999999999999778 20.3757050000  0.6977250000 17.3552140000
192      13   4  0.05999999999999999778 21.0199980000 -0.0009500000 18.8456860000
193      13   3  0.11500000000000000500 23.4628560000  3.9792160000 19.8269250000
194      13   3  0.11500000000000000500 19.3426340000  5.2041830000 19.5786220000
195      13   3  0.11500000000000000500 21.7253680000  5.7498960000 20.0646040000
196      14   1 -0.11500000000000000500 36.2987680000 34.1496520000 43.7032900000
197      14   1 -0.11500000000000000500 34.9934900000 33.6736190000 43.8945130000
198      14   1 -0.11500000000000000500 37.3518780000 33.2240280000 43.7183160000
199      14   2 -0.06500000000000000222 36.5604460000 35.6181730000 43.4546670000
200      14   1 -0.11500000000000000500 34.7448510000 32.3119910000 44.0912060000
201      14   1 -0.11500000000000000500 37.1098880000 31.8609340000 43.9131020000
202      14   1 -0.11500000000000000500 35.8036380000 31.3987530000 44.0997220000
203      14   3  0.11500000000000000500 34.1625210000 34.3770420000 43.8925370000
204      14   3  0.11500000000000000500 38.3726940000 33.5742010000 43.5769320000
205      14   4  0.05999999999999999778 37.5460770000 35.9198630000 43.8278220000
206      14   4  0.05999999999999999778 36.5334090000 35.8466940000 42.3801870000
207      14   4  0.05999999999999999778 35.8073030000 36.2491030000 43.9408290000
208      14   3  0.11500000000000000500 33.7248380000 31.9658950000 44.2401220000
209      14   3  0.11500000000000000500 37.9427900000 31.1615150000 43.9234580000
210      14   3  0.11500000000000000500 35.6133390000 30.3398550000 44.2550260000
211      15   1 -0.11500000000000000500 21.1411590000 18.8161180000 59.2894210000
212      15   1 -0.11500000000000000500 22.4265090000 19.3697270000 59.3806020000
213      15   1 -0.11500000000000000500 21.0014930000 17.4309840000 59.4565790000
214      15   2 -0.06500000000000000222 19.9334220000 19.6940720000 59.0498110000
215      15   1 -0.11500000000000000500 23.5410370000 18.5650850000 59.6353920000
216      15   1 -0.11500000000000000500 22.1117350000 16.6209540000 59.7129790000
217      15   1 -0.11500000000000000500 23.3874890000 17.1856020000 59.8043720000
218      15   3  0.11500000000000000500 22.5569840000 20.4423890000 59.2475990000
219      15   3  0.11500000000000000500 20.0129130000 16.9813590000 59.3843090000
220      15   4  0.05999999999999999778 19.1463120000 19.1563020000 58.5085230000
221      15   4  0.05999999999999999778 19.5011800000 20.0372470000 60.0000000000
222      15   4  0.05999999999999999778 20.1936180000 20.5867260000 58.4691940000
223      15   3  0.11500000000000000500 24.5285310000 19.0158300000 59.6992020000
224      15   3  0.11500000000000000500 21.9796600000 15.5484400000 59.8366310000
225      15   3  0.11500000000000000500 24.2527220000 16.5573520000 60.0000000000
226      16   1 -0.11500000000000000500 43.5901970000 36.3963960000 51.9926580000
227      16   1 -0.11500000000000000500 43.1831290000 35.0658270000 52.1681710000
228      16   1 -0.11500000000000000500 42.7030810000 37.4166140000 52.3644430000
229      16   2 -0.06500000000000000222 44.9625210000 36.7224580000 51.4474460000
230      16   1 -0.11500000000000000500 41.9280100000 34.7610720000 52.7032780000
231      16   1 -0.11500000000000000500 41.4471390000 37.1186300000 52.9014180000
232      16   1 -0.11500000000000000500 41.0544020000 35.7879520000 53.0739970000
233      16   3  0.11500000000000000500 43.8549180000 34.2590440000 51.8798680000
234      16   3  0.11500000000000000500 42.9982640000 38.4557530000 52.2312830000
235      16   4  0.05999999999999999778 44.9621590000 37.6713660000 50.8985330000
236      16   4  0.05999999999999999778 45.6972690000 36.8144200000 52.2593250000
237      16   4  0.05999999999999999778 45.3225780000 35.9399060000 50.7694940000
238      16   3  0.11500000000000000500 41.6325330000 33.7220520000 52.8278420000
239      16   3  0.11500000000000000500 40.7744850000 37.9265630000 53.1803440000
240      16   3  0.11500000000000000500 40.0769330000 35.5537500000 53.4878830000
241      17   1 -0.11500000000000000500 49.2558450000  5.5951610000 49.5122370000
242      17   1 -0.11500000000000000500 49.9442380000  5.6945930000 50.7300840000
243      17   1 -0.11500000000000000500 49.9209230000  5.0229840000 48.4184680000
244      17   2 -0.06500000000000000222 47.8228510000  6.0626720000 49.3905530000
245      17   1 -0.11500000000000000500 51.2578490000  5.2326500000 50.8548830000
246      17   1 -0.11500000000000000500 51.2339780000  4.5578330000 48.5369910000
247      17   1 -0.11500000000000000500 51.9082760000  4.6601620000 49.7574740000
248      17   3  0.11500000000000000500 49.4475750000  6.1414780000 51.5896990000
249      17   3  0.11500000000000000500 49.4056620000  4.9414980000 47.4631980000
250      17   4  0.05999999999999999778 47.5969090000  6.4065490000 48.3744680000
251      17   4  0.05999999999999999778 47.1219680000  5.2492310000 49.6240860000
252      17   4  0.05999999999999999778 47.6080890000  6.8860210000 50.0816550000
253      17   3  0.11500000000000000500 51.7729920000  5.3225280000 51.8082640000
254      17   3  0.11500000000000000500 51.7308250000  4.1198920000 47.6742210000
255      17   3  0.11500000000000000500 52.9305040000  4.3025560000 49.8511010000
256      18   1 -0.11500000000000000500 12.5996710000 39.0205340000 16.7123800000
257      18   1 -0.11500000000000000500 11.6922030000 38.0310480000 17.1177700000
258      18   1 -0.11500000000000000500 13.9137370000 38.6337170000 16.4129670000
259      18   2 -0.06500000000000000222 12.1639380000 40.4616350000 16.5702150000
260      18   1 -0.11500000000000000500 12.0831090000 36.6925020000 17.2179100000
261      18   1 -0.11500000000000000500 14.3106630000 37.2967010000 16.5097270000
262      18   1 -0.11500000000000000500 13.3955340000 36.3193510000 16.9122890000
263      18   3  0.11500000000000000500 10.6687770000 38.3118400000 17.3608180000
264      18   3  0.11500000000000000500 14.6344920000 39.3875140000 16.1015540000
265      18   4  0.05999999999999999778 12.9927530000 41.1531390000 16.7615760000
266      18   4  0.05999999999999999778 11.7970650000 40.6638230000 15.5543490000
267      18   4  0.05999999999999999778 11.3518960000 40.7069040000 17.2645340000
268      18   3  0.11500000000000000500 11.3631120000 35.9426840000 17.5369130000
269      18   3  0.11500000000000000500 15.3360670000 37.0202980000 16.2748530000
270      18   3  0.11500000000000000500 13.7027660000 35.2796960000 16.9918120000
271      19   1 -0.11500000000000000500 17.4063870000 36.2542060000 27.2346790000
272      19   1 -0.11500000000000000500 16.3871820000 35.3575070000 27.5869210000
273      19   1 -0.11500000000000000500 18.7361870000 35.8219040000 27.3385620000
274      19   2 -0.06500000000000000222 17.0788730000 37.6397620000 26.7249580000
275      19   1 -0.11500000000000000500 16.6855480000 34.0643880000 28.0266500000
276      19   1 -0.11500000000000000500 19.0412620000 34.5296600000 27.7762380000
277      19   1 -0.11500000000000000500 18.0158120000 33.6443030000 28.1216720000
278      19   3  0.11500000000000000500 15.3482880000 35.6759930000 27.5192280000
279      19   3  0.11500000000000000500 19.5418090000 36.5046250000 27.0748580000
280      19   4  0.05999999999999999778 17.8674230000 38.3581020000 26.9777590000
281      19   4  0.05999999999999999778 16.9724770000 37.6421680000 25.6312780000
282      19   4  0.05999999999999999778 16.1365470000 38.0106390000 27.1446240000
283      19   3  0.11500000000000000500 15.8790310000 33.3870290000 28.2970230000
284      19   3  0.11500000000000000500 20.0803260000 34.2170560000 27.8513730000
285      19   3  0.11500000000000000500 18.2506470000 32.6402780000 28.4657440000
286      20   1 -0.11500000000000000500 28.8736210000 57.1661820000 35.0190110000
287      20   1 -0.11500000000000000500 29.5206690000 56.6356510000 33.8934950000
288      20   1 -0.11500000000000000500 27.5697950000 56.7339100000 35.3004780000
289      20   2 -0.06500000000000000222 29.5756060000 58.1537250000 35.9238980000
290      20   1 -0.11500000000000000500 28.8867540000 55.6971760000 33.0737660000
291      20   1 -0.11500000000000000500 26.9307890000 55.7946720000 34.4855980000
292      20   1 -0.11500000000000000500 27.5878720000 55.2712330000 33.3680190000
293      20   3  0.11500000000000000500 30.5310240000 56.9630890000 33.6541530000
294      20   3  0.11500000000000000500 27.0486010000 57.1376540000 36.1665170000
295      20   4  0.05999999999999999778 28.8645910000 58.8395490000 36.3991190000
296      20   4  0.05999999999999999778 30.1172920000 57.6356050000 36.7273820000
297      20   4  0.05999999999999999778 30.3079180000 58.7547510000 35.3724140000
298      20   3  0.11500000000000000500 29.4068090000 55.3013990000 32.2046920000
299      20   3  0.11500000000000000500 25.9180960000 55.4759440000 34.7220000000
300      20   3  0.11500000000000000500 27.0917360000 54.5435960000 32.7308450000
301      21   1 -0.11500000000000000500 21.5074270000 55.0715350000  2.4830620000
302      21   1 -0.11500000000000000500 21.6161470000 54.3444180000  3.6773840000
303      21   1 -0.11500000000000000500 20.4475130000 54.7696790000  1.6161660000
304      21   2 -0.06500000000000000222 22.4883220000 56.1744870000  2.1541420000
305      21   1 -0.11500000000000000500 20.6913790000 53.3468490000  4.0001820000
306      21   1 -0.11500000000000000500 19.5185760000 53.7742980000  1.9336880000
307      21   1 -0.11500000000000000500 19.6364520000 53.0585540000  3.1289060000
308      21   3  0.11500000000000000500 22.4357130000 54.5593090000  4.3610880000
309      21   3  0.11500000000000000500 20.3487500000 55.3191750000  0.6818340000
310      21   4  0.05999999999999999778 22.6211330000 56.2849520000  1.0716030000
311      21   4  0.05999999999999999778 22.1380700000 57.1414450000  2.5411510000
312      21   4  0.05999999999999999778 23.4723930000 55.9833630000  2.5976790000
313      21   3  0.11500000000000000500 20.7969970000 52.7939940000  4.9305480000
314      21   3  0.11500000000000000500 18.7058930000 53.5556040000  1.2446760000
315      21   3  0.11500000000000000500 18.9175410000 52.2816500000  3.3762590000
316      22   1 -0.11500000000000000500 33.9134540000  4.8887440000 34.0958450000
317      22   1 -0.11500000000000000500 33.5487860000  3.5605180000 34.3599590000
318      22   1 -0.11500000000000000500 32.8937520000  5.8369660000 33.9311390000
319      22   2 -0.06500000000000000222 35.3685430000  5.2940610000 34.0231800000
320      22   1 -0.11500000000000000500 32.2048160000  3.1889430000 34.4610340000
321      22   1 -0.11500000000000000500 31.5479310000  5.4722140000 34.0323700000
322      22   1 -0.11500000000000000500 31.1976390000  4.1451940000 34.2989080000
323      22   3  0.11500000000000000500 34.3254860000  2.8078880000 34.4848670000
324      22   3  0.11500000000000000500 33.1560370000  6.8720810000 33.7203810000
325      22   4  0.05999999999999999778 35.5165780000  6.1412520000 33.3434130000
326      22   4  0.05999999999999999778 35.7426240000  5.5977540000 35.0107490000
327      22   4  0.05999999999999999778 35.9996160000  4.4677450000 33.6759090000
328      22   3  0.11500000000000000500 31.9454440000  2.1526020000 34.6637910000
329      22   3  0.11500000000000000500 30.7738440000  6.2244420000 33.8983510000
330      22   3  0.11500000000000000500 30.1518480000  3.8584600000 34.3744310000
331      23   1 -0.11500000000000000500 51.1587960000 48.8676630000 10.3082680000