Generated by pymatgen.io.lammps.data.LammpsData

15764  atoms
15086  bonds
27177  angles
28344  dihedrals

   17  atom types
   18  bond types
   32  angle types
   31  dihedral types

-0.2500000000 60.2500000000  xlo xhi
-0.2500000000 60.2500000000  ylo yhi
-0.2500000000 60.2500000000  zlo zhi

Masses

1   18.998403
2   15.999400
3   12.010700
4   12.010700
5    1.007940
6   14.010000
7   32.060000
8   16.000000
9   12.010000
10  19.000000
11  16.000000
12  12.010000
13  12.010000
14   1.008000
15  32.060000
16  32.060000
17   6.941000

Pair Coeffs

1     0.0530  2.950000
2     0.1400  2.900000
3     0.0620  3.250000
4     0.0660  3.500000
5     0.0300  2.500000
6       0.17  3.249999
7       0.25  3.549340
8       0.21  2.959566
9      0.066  3.499450
10     0.053  2.948875
11      0.14  2.900000
12     0.066  3.500000
13     0.066  3.500000
14      0.03  2.500000
15  0.344001  3.590322
16  0.344001  3.590322
17  0.165057  1.506000

Bond Coeffs

1   367.00  1.332
2   455.00  1.355
3   320.00  1.410
4   470.00  1.351
5   268.00  1.529
6   340.00  1.090
7   268.00  1.529
8   441.80  1.323
9   235.40  1.818
10  637.10  1.442
11  372.00  1.570
12  320.00  1.410
13  320.00  1.380
14  268.00  1.529
15  340.00  1.090
16  340.00  1.090
17  157.87  2.133
18  154.36  2.117


Angle Coeffs

1    90.00  114.194
2    77.00  109.100
3    50.00  109.500
4    58.35  112.700
5    50.00  109.500
6    35.00  109.500
7    37.50  110.700
8    33.00  107.800
9   110.00  107.787
10  110.00  110.361
11   50.00  109.500
12   50.00  109.500
13   40.00  107.000
14   50.00  109.500
15   37.50  110.700
16   93.30  107.100
17   82.90  111.800
18  104.00  102.600
19  115.80  118.500
20   94.30  113.600
21   97.50  100.200
22   80.20  125.600
23   60.00  109.500
24   50.00  109.500
25   35.00  109.500
26   37.50  110.700
27   33.00  107.800
28   92.60  111.550
29   35.00  109.500
30   33.00  109.500
31   73.56  112.740
32   73.56  112.740


Dihedral Coeffs

1 3 0.062500000 1 0.000000000 -0.011000000 2 180.000000000 0.280500000 3 0.000000000
2 3 0.062500000 1 0.000000000 -0.011000000 2 180.000000000 0.280500000 3 0.000000000
3 1 0.370500000 3 0.000000000
4 1 0.370500000 3 0.000000000
5 3 1.726500000 1 0.000000000 -1.387000000 2 180.000000000 0.335500000 3 0.000000000
6 3 0.062500000 1 0.000000000 -0.011000000 2 180.000000000 0.280500000 3 0.000000000
7 2 0.518500000 1 0.000000000 -0.728500000 2 180.000000000
8 1 0.221000000 3 0.000000000
9 3 0.627500000 1 0.000000000 -0.309500000 2 180.000000000 0.273000000 3 0.000000000
10 1 0.150000000 3 0.000000000
11 3 0.301000000 1 0.000000000 -1.359500000 2 180.000000000 0.367000000 3 0.000000000
12 3 0.396500000 1 0.000000000 -0.183500000 2 180.000000000 0.414500000 3 0.000000000
13 3 0.301000000 1 0.000000000 -1.359500000 2 180.000000000 0.367000000 3 0.000000000
14 1 0.221000000 3 0.000000000
15 2 0.518500000 1 0.000000000 -0.728500000 2 180.000000000
16 1 0.234000000 3 0.000000000
17 1 0.173400000 3 0.000000000
18 1 0.158000000 3 0.000000000
19 1 -0.001800000 3 0.000000000
20 3 3.916460000 1 0.000000000 -1.245000000 2 180.000000000 -0.381800000 3 0.000000000
21 3 0.062500000 1 0.000000000 -0.011000000 2 180.000000000 0.280500000 3 0.000000000
22 3 0.062500000 1 0.000000000 -0.011000000 2 180.000000000 0.280500000 3 0.000000000
23 1 0.370500000 3 0.000000000
24 1 0.370500000 3 0.000000000
25 3 -0.533500000 1 0.000000000 -0.783500000 2 180.000000000 0.337500000 3 0.000000000
26 1 0.370500000 3 0.000000000
27 3 1.119000000 1 0.000000000 -1.163500000 2 180.000000000 -0.341500000 3 0.000000000
28 1 0.234000000 3 0.000000000
29 1 0.150000000 3 0.000000000
30 4 5.431700000 1 0.000000000 -3.590000000 2 180.000000000 1.055600000 3 0.000000000 0.058320000 4 180.000000000
31 4 5.431700000 1 0.000000000 -3.590000000 2 180.000000000 1.055600000 3 0.000000000 0.058320000 4 180.000000000


Atoms

1         1   1 -0.11999999999999999556  4.4921190000 32.6933600000 52.6066320000
2         1   1 -0.11999999999999999556  3.6016770000 31.7144580000 54.3717960000
3         1   1 -0.23260000000000000120  5.4310630000 36.0214700000 55.6435960000
4         1   1 -0.23260000000000000120  4.7703250000 34.5261110000 57.0944500000
5         1   1 -0.11999999999999999556  1.2244820000 33.0238590000 53.9021900000
6         1   1 -0.11999999999999999556  2.1159290000 34.0036080000 52.1314340000
7         1   1 -0.11999999999999999556  7.8384610000 34.6675790000 55.3275880000
8         1   1 -0.11999999999999999556  7.3790170000 35.1845830000 57.4262720000
9         1   2 -0.36299999999999998934  5.2034130000 33.8785130000 54.9801910000
10        1   3  0.23999999999999999112  3.5691310000 32.8488240000 53.6050500000
11        1   3  0.12149999999999999689  3.8871630000 34.0716960000 54.4477110000
12        1   4  0.64670000000000005258  5.5652840000 34.7057820000 55.9873550000
13        1   3  0.08999999999999999667  2.1835500000 32.9020080000 52.9360880000
14        1   3  0.08999999999999999667  7.0222560000 34.3910440000 56.3806090000
15        1   5  0.02999999999999999889  3.8598940000 34.9650230000 53.8174270000
16        1   5  0.02999999999999999889  3.1480480000 34.1514010000 55.2495280000
17        1   5  0.14999999999999999445  1.9913130000 32.0041790000 52.3431870000
18        1   5  0.14999999999999999445  7.1342350000 33.3405610000 56.6645170000
19        2   1 -0.11999999999999999556 43.9945540000 14.6968520000 23.9431260000
20        2   1 -0.11999999999999999556 44.4007500000 16.6339340000 22.9686220000
21        2   1 -0.23260000000000000120 41.2043670000 17.2534940000 26.5621940000
22        2   1 -0.23260000000000000120 41.6500290000 18.7947440000 25.0777450000
23        2   1 -0.11999999999999999556 46.3694160000 17.1568990000 24.8225300000
24        2   1 -0.11999999999999999556 45.9641340000 15.2143000000 25.7983470000
25        2   1 -0.11999999999999999556 39.5051500000 15.9923670000 24.7592330000
26        2   1 -0.11999999999999999556 39.0236770000 18.1231490000 25.0921130000
27        2   2 -0.36299999999999998934 42.1939750000 16.6552280000 24.6264900000
28        2   3  0.23999999999999999112 44.4199620000 15.9775690000 24.1705200000
29        2   3  0.12149999999999999689 43.5181170000 16.6751450000 25.1738650000
30        2   4  0.64670000000000005258 41.2936620000 17.4742860000 25.2166460000
31        2   3  0.08999999999999999667 45.8913890000 15.8933220000 24.6154690000
32        2   3  0.08999999999999999667 39.9248140000 17.2677540000 24.5383570000
33        2   5  0.02999999999999999889 43.5443230000 16.1344560000 26.1241290000
34        2   5  0.02999999999999999889 43.8693270000 17.7013130000 25.3123730000
35        2   5  0.14999999999999999445 46.5071740000 15.3891310000 23.8663470000
36        2   5  0.14999999999999999445 39.9883680000 17.4509080000 23.4617550000
37        3   1 -0.11999999999999999556 10.9941450000 35.1860110000 18.8952520000
38        3   1 -0.11999999999999999556  8.8470940000 34.6806670000 18.8535630000
39        3   1 -0.23260000000000000120 11.1460910000 32.3312350000 15.2885570000
40        3   1 -0.23260000000000000120  8.9683260000 32.4427590000 15.4387360000
41        3   1 -0.11999999999999999556  9.3332860000 32.4731880000 20.4273390000
42        3   1 -0.11999999999999999556 11.4852090000 32.9805920000 20.4712680000
43        3   1 -0.11999999999999999556 11.2102740000 34.8742080000 14.1671220000
44        3   1 -0.11999999999999999556  9.8820840000 33.4664810000 13.1007860000
45        3   2 -0.36299999999999998934 10.2184120000 33.9312730000 16.5783190000
46        3   3  0.23999999999999999112 10.1053270000 34.1462130000 18.9369550000
47        3   3  0.12149999999999999689 10.3516300000 33.1800670000 17.7912960000
48        3   4  0.64670000000000005258 10.1097610000 33.2089340000 15.4398440000
49        3   3  0.08999999999999999667 10.2300060000 33.4999170000 20.3286910000
50        3   3  0.08999999999999999667 10.0412590000 34.1823790000 14.2464510000
51        3   5  0.02999999999999999889 11.3612270000 32.7677980000 17.8736440000
52        3   5  0.02999999999999999889  9.6101190000 32.3779020000 17.8386990000
53        3   5  0.14999999999999999445 10.0422050000 34.2252670000 21.1244190000
54        3   5  0.14999999999999999445  9.2083460000 34.8826850000 14.3581840000
55        4   1 -0.11999999999999999556  2.6792840000 12.1493810000 31.7070480000
56        4   1 -0.11999999999999999556  1.0544860000 11.6456190000 33.1117520000
57        4   1 -0.23260000000000000120  3.0317740000  7.5726210000 31.3752320000
58        4   1 -0.23260000000000000120  1.1660180000  7.6066190000 32.5134110000
59        4   1 -0.11999999999999999556  2.8790990000 11.4841610000 35.1686520000
60        4   1 -0.11999999999999999556  4.5077930000 11.9912960000 33.7614100000
61        4   1 -0.11999999999999999556  1.6590510000  8.3335730000 29.0806670000
62        4   1 -0.11999999999999999556  0.8366490000  6.5257090000 30.0492440000
63        4   2 -0.36299999999999998934  1.9072470000  9.5166970000 31.5757420000
64        4   3  0.23999999999999999112  2.3857780000 11.4576440000 32.8508430000
65        4   3  0.12149999999999999689  2.6927450000  9.9799470000 32.6810750000
66        4   4  0.64670000000000005258  1.8067680000  8.1748190000 31.4380090000
67        4   3  0.08999999999999999667  3.1689050000 12.1243860000 33.9964170000
68        4   3  0.08999999999999999667  0.9851230000  7.8725470000 30.1691480000
69        4   5  0.02999999999999999889  3.7581100000  9.8515200000 32.4700380000
70        4   5  0.02999999999999999889  2.4229680000  9.4540940000 33.6009950000
71        4   5  0.14999999999999999445  2.9177190000 13.1841160000 34.0884070000
72        4   5  0.14999999999999999445  0.0000030000  8.3457140000 30.2171990000
73        5   1 -0.11999999999999999556 46.2014990000 27.0211200000 11.4169820000
74        5   1 -0.11999999999999999556 46.7241730000 24.9083250000 11.7773280000
75        5   1 -0.23260000000000000120 41.9778920000 25.2810590000 10.8562560000
76        5   1 -0.23260000000000000120 42.9083350000 23.4590500000 11.6258100000
77        5   1 -0.11999999999999999556 47.0734570000 24.5303860000  9.0715420000
78        5   1 -0.11999999999999999556 46.5517830000 26.6487210000  8.7100530000
79        5   1 -0.11999999999999999556 41.9512240000 26.3625610000 13.4171330000
80        5   1 -0.11999999999999999556 40.9690280000 24.3881300000 13.2765270000
81        5   2 -0.36299999999999998934 44.0110650000 25.4141800000 11.8220110000
82        5   3  0.23999999999999999112 46.1555380000 25.7659510000 10.8735160000
83        5   3  0.12149999999999999689 44.7224940000 25.3578810000 10.5794060000
84        5   4  0.64670000000000005258 42.7998400000 24.8123210000 11.8421110000
85        5   3  0.08999999999999999667 47.0628710000 25.7778730000  9.6298210000
86        5   3  0.08999999999999999667 42.1663740000 25.0320350000 13.2302480000
87        5   5  0.02999999999999999889 44.2857150000 26.0560880000  9.8598470000
88        5   5  0.02999999999999999889 44.7195750000 24.3432100000 10.1719880000
89        5   5  0.14999999999999999445 48.0844990000 26.0721830000  9.8832820000
90        5   5  0.14999999999999999445 42.8165990000 24.6514470000 14.0233540000
91        6   1 -0.11999999999999999556  3.5278460000 32.1949650000 30.2656510000
92        6   1 -0.11999999999999999556  4.0783480000 34.1171460000 29.3333930000
93        6   1 -0.23260000000000000120  8.0078840000 31.3006550000 29.7083770000
94        6   1 -0.23260000000000000120  8.1006270000 33.4214580000 29.1875650000
95        6   1 -0.11999999999999999556  3.7041920000 33.0164440000 26.8364790000
96        6   1 -0.11999999999999999556  3.1501390000 31.0901280000 27.7705530000
97        6   1 -0.11999999999999999556  7.7586260000 31.9603260000 32.3974570000
98        6   1 -0.11999999999999999556  9.5270470000 32.8580000000 31.4229200000
99        6   2 -0.36299999999999998934  6.2398440000 32.6203420000 30.1738410000
100       6   3  0.23999999999999999112  4.1015850000 32.7589700000 29.1585670000
101       6   3  0.12149999999999999689  5.5278740000 32.2681850000 28.9811740000
102       6   4  0.64670000000000005258  7.5884100000 32.5381890000 30.1080930000
103       6   3  0.08999999999999999667  3.1851870000 32.4419340000 27.9627930000
104       6   3  0.08999999999999999667  8.1688950000 32.8897430000 31.4922620000
105       6   5  0.02999999999999999889  5.5251820000 31.1828090000 28.8470700000
106       6   5  0.02999999999999999889  5.9643450000 32.7567160000 28.1057400000
107       6   5  0.14999999999999999445  2.1707090000 32.8139820000 28.1271010000
108       6   5  0.14999999999999999445  7.8427710000 33.8830700000 31.8141340000
109       7   1 -0.11999999999999999556 12.8441530000 52.7277850000 21.9299500000
110       7   1 -0.11999999999999999556 10.7632020000 53.1626160000 22.5194420000
111       7   1 -0.23260000000000000120 13.5845170000 56.9649010000 23.5669560000
112       7   1 -0.23260000000000000120 11.5291310000 56.7661140000 24.2835630000
113       7   1 -0.11999999999999999556 10.3159950000 54.3502970000 20.0749510000
114       7   1 -0.11999999999999999556 12.4011670000 53.9126490000 19.4827670000
115       7   1 -0.11999999999999999556 14.4652560000 55.2731420000 25.5895030000
116       7   1 -0.11999999999999999556 13.3004750000 57.0021460000 26.3220920000
117       7   2 -0.36299999999999998934 12.6132010000 54.9300550000 23.5550570000
118       7   3  0.23999999999999999112 11.8105920000 53.6081250000 21.7577070000
119       7   3  0.12149999999999999689 12.2193070000 55.0087110000 22.1795470000
120       7   4  0.64670000000000005258 12.7340600000 56.1086110000 24.2078230000
121       7   3  0.08999999999999999667 11.3722950000 53.5088530000 20.2852210000
122       7   3  0.08999999999999999667 13.2232530000 55.8264600000 25.6422430000
123       7   5  0.02999999999999999889 13.0579680000 55.3442390000 21.5630240000
124       7   5  0.02999999999999999889 11.3651840000 55.6798110000 22.0544390000
125       7   5  0.14999999999999999445 11.0828790000 52.4882050000 20.0223550000
126       7   5  0.14999999999999999445 12.5418620000 55.1474640000 26.1631340000
127       8   1 -0.11999999999999999556 25.6624430000 14.7928280000 30.9067460000
128       8   1 -0.11999999999999999556 26.6216190000 13.1006940000 29.8657840000
129       8   1 -0.23260000000000000120 22.7737020000 14.6078410000 27.3287520000
130       8   1 -0.23260000000000000120 23.8324430000 12.7435380000 26.9031980000
131       8   1 -0.11999999999999999556 28.1179750000 14.8649140000 28.3709390000
132       8   1 -0.11999999999999999556 27.1584100000 16.5613500000 29.4156880000
133       8   1 -0.11999999999999999556 21.3969070000 13.3662800000 29.4003230000
134       8   1 -0.11999999999999999556 21.2130730000 12.3231560000 27.4610050000
135       8   2 -0.36299999999999998934 24.1041970000 13.7176870000 28.9167090000
136       8   3  0.23999999999999999112 26.2261810000 14.4040210000 29.7218650000
137       8   3  0.12149999999999999689 25.2312340000 14.5369540000 28.5821080000
138       8   4  0.64670000000000005258 23.2354000000 13.4616240000 27.9120560000
139       8   3  0.08999999999999999667 27.5018550000 15.2443680000 29.5304310000
140       8   3  0.08999999999999999667 22.0673510000 12.6277060000 28.4748350000
141       8   5  0.02999999999999999889 24.9254210000 15.5825650000 28.4861470000
142       8   5  0.02999999999999999889 25.7038140000 14.1943620000 27.6575250000
143       8   5  0.14999999999999999445 28.1926670000 15.1186220000 30.3680170000
144       8   5  0.14999999999999999445 22.4303380000 11.7046710000 28.9362500000
145       9   1 -0.11999999999999999556 34.4135050000 40.1039910000  4.5996680000
146       9   1 -0.11999999999999999556 36.0233520000 41.2530620000  5.5768930000
147       9   1 -0.23260000000000000120 34.9684090000 43.2480700000  1.2848620000
148       9   1 -0.23260000000000000120 36.7257090000 43.7999120000  2.4617320000
149       9   1 -0.11999999999999999556 34.1513530000 42.9545190000  6.6662870000
150       9   1 -0.11999999999999999556 32.5371820000 41.8016790000  5.6887520000
151       9   1 -0.11999999999999999556 36.2955910000 40.9962450000  0.3381210000
152       9   1 -0.11999999999999999556 37.3950660000 42.8829580000  0.0000000000
153       9   2 -0.36299999999999998934 35.6843290000 41.8512580000  2.9036810000
154       9   3  0.23999999999999999112 34.7700060000 41.3519740000  5.0336750000
155       9   3  0.12149999999999999689 34.7634570000 42.3448060000  3.8843810000
156       9   4  0.64670000000000005258 36.0489780000 42.7244230000  1.9370790000
157       9   3  0.08999999999999999667 33.8099970000 41.7243860000  6.1781690000
158       9   3  0.08999999999999999667 36.9834450000 41.9991070000  0.9485620000
159       9   5  0.02999999999999999889 33.7563560000 42.4064210000  3.4624980000
160       9   5  0.02999999999999999889 35.0773390000 43.3228060000  4.2592790000
161       9   5  0.14999999999999999445 33.8467790000 40.9889760000  6.9858830000
162       9   5  0.14999999999999999445 37.8546880000 41.5844400000  1.4639690000
163      10   1 -0.11999999999999999556 47.6163930000 44.2879220000 27.7153690000
164      10   1 -0.11999999999999999556 47.2810870000 43.3509060000 25.7464840000
165      10   1 -0.23260000000000000120 43.3368250000 42.7939130000 28.5118130000
166      10   1 -0.23260000000000000120 43.6322190000 41.7371400000 26.6214090000
167      10   1 -0.11999999999999999556 46.1335960000 45.6809890000 24.8299180000
168      10   1 -0.11999999999999999556 46.4715260000 46.6213840000 26.8026370000
169      10   1 -0.11999999999999999556 44.9691720000 40.9545110000 29.8081510000
170      10   1 -0.11999999999999999556 43.2949990000 40.0306850000 28.7006550000
171      10   2 -0.36299999999999998934 45.4172800000 42.6433470000 27.6555200000
172      10   3  0.23999999999999999112 46.7894670000 44.2795470000 26.6249380000
173      10   3  0.12149999999999999689 45.3675430000 43.9312300000 27.0292200000
174      10   4  0.64670000000000005258 44.2297870000 42.0187270000 27.8270300000
175      10   3  0.08999999999999999667 46.9202910000 45.6557110000 25.9472730000
176      10   3  0.08999999999999999667 44.4776490000 40.6894380000 28.5673220000
177      10   5  0.02999999999999999889 44.9951120000 44.6813380000 27.7325450000
178      10   5  0.02999999999999999889 44.7403970000 43.9074300000 26.1338570000
179      10   5  0.14999999999999999445 47.9557710000 45.8670920000 25.6685550000
180      10   5  0.14999999999999999445 45.1859850000 40.0610270000 28.0195850000
181      11   1 -0.11999999999999999556  5.1557010000 50.0218170000 32.4399200000
182      11   1 -0.11999999999999999556  4.2557370000 48.0239750000 32.6961110000
183      11   1 -0.23260000000000000120  3.3478540000 50.7370490000 36.6113970000
184      11   1 -0.23260000000000000120  2.9810040000 48.5835840000 36.5361460000
185      11   1 -0.11999999999999999556  1.8768470000 48.9612550000 31.6721470000
186      11   1 -0.11999999999999999556  2.7792010000 50.9634540000 31.4130760000
187      11   1 -0.11999999999999999556  6.0461890000 50.2719970000 37.0921870000
188      11   1 -0.11999999999999999556  4.7013400000 49.2552700000 38.5206490000
189      11   2 -0.36299999999999998934  4.3691920000 49.5076840000 35.0208850000
190      11   3  0.23999999999999999112  3.9803060000 49.3655360000 32.6862090000
191      11   3  0.12149999999999999689  3.3894030000 49.7987240000 34.0165540000
192      11   4  0.64670000000000005258  3.9368920000 49.5434840000 36.3021100000
193      11   3  0.08999999999999999667  3.0551870000 49.6276460000 31.4838680000
194      11   3  0.08999999999999999667  5.1359110000 49.2702800000 37.2317290000
195      11   5  0.02999999999999999889  3.1804010000 50.8718640000 33.9896930000
196      11   5  0.02999999999999999889  2.4677610000 49.2378770000 34.1942640000
197      11   5  0.14999999999999999445  3.5138090000 49.2992550000 30.5477000000
198      11   5  0.14999999999999999445  5.6068580000 48.3119900000 36.9939320000
199      12   1 -0.11999999999999999556 52.1247450000 25.4272340000 30.6270480000
200      12   1 -0.11999999999999999556 50.8628410000 25.4241690000 32.4366130000
201      12   1 -0.23260000000000000120 50.4005470000 21.1906520000 30.1175410000
202      12   1 -0.23260000000000000120 49.0893230000 21.8086490000 31.7535180000
203      12   1 -0.11999999999999999556 52.9078060000 24.2551120000 33.8640360000
204      12   1 -0.11999999999999999556 54.1738710000 24.2600250000 32.0509670000
205      12   1 -0.11999999999999999556 48.9411670000 22.7546710000 28.3420130000
206      12   1 -0.11999999999999999556 47.7090630000 21.3112380000 29.4739490000
207      12   2 -0.36299999999999998934 50.3023830000 23.3727710000 30.6769280000
208      12   3  0.23999999999999999112 51.8709830000 24.7570170000 31.7929500000
209      12   3  0.12149999999999999689 51.4657660000 23.3205460000 31.5119020000
210      12   4  0.64670000000000005258 49.6095570000 22.2181060000 30.5486940000
211      12   3  0.08999999999999999667 53.1291400000 24.8842170000 32.6710360000
212      12   3  0.08999999999999999667 48.4410490000 22.4536660000 29.5711570000
213      12   5  0.02999999999999999889 52.2813000000 22.8068870000 30.9950930000
214      12   5  0.02999999999999999889 51.2453670000 22.8226300000 32.4600890000
215      12   5  0.14999999999999999445 53.3851320000 25.9310440000 32.8532560000
216      12   5  0.14999999999999999445 47.7996080000 23.2702130000 29.9153380000
217      13   1 -0.11999999999999999556  7.8254910000 22.7033440000 35.9952090000
218      13   1 -0.11999999999999999556  6.7456760000 20.9899920000 35.1203600000
219      13   1 -0.23260000000000000120 11.5263780000 20.2691650000 34.7464950000
220      13   1 -0.23260000000000000120 10.0457860000 19.0378050000 33.7124490000
221      13   1 -0.11999999999999999556  6.8803510000 19.6693520000 37.5336330000
222      13   1 -0.11999999999999999556  7.9607900000 21.3874770000 38.4116180000
223      13   1 -0.11999999999999999556 11.2854050000 22.2253030000 32.7859080000
224      13   1 -0.11999999999999999556 11.7692610000 20.2224560000 31.9875700000
225      13   2 -0.36299999999999998934  9.4315160000 21.0622160000 34.4879980000
226      13   3  0.23999999999999999112  7.6780320000 21.3442610000 36.0589500000
227      13   3  0.12149999999999999689  8.9991100000 20.6453240000 35.7889960000
228      13   4  0.64670000000000005258 10.4307660000 20.3389990000 33.9328750000
229      13   3  0.08999999999999999667  7.0765310000 21.0185790000 37.4381900000
230      13   3  0.08999999999999999667 10.7987130000 20.9720280000 32.5762740000
231      13   5  0.02999999999999999889  9.7300060000 20.9438320000 36.5457770000
232      13   5  0.02999999999999999889  8.8408660000 19.5639050000 35.8213150000
233      13   5  0.14999999999999999445  6.1265270000 21.5365900000 37.5922720000
234      13   5  0.14999999999999999445  9.9269150000 21.0233650000 31.9174940000
235      14   1 -0.11999999999999999556 50.1581910000 39.5829730000 53.1457470000
236      14   1 -0.11999999999999999556 52.0837000000 40.1939520000 52.2591480000
237      14   1 -0.23260000000000000120 52.0473120000 41.2754310000 56.9860450000
238      14   1 -0.23260000000000000120 53.5751500000 42.0041810000 55.6031900000
239      14   1 -0.11999999999999999556 53.1827070000 37.7701960000 52.9688700000
240      14   1 -0.11999999999999999556 51.2521680000 37.1564540000 53.8557190000
241      14   1 -0.11999999999999999556 50.3066100000 43.2668420000 56.1300770000
242      14   1 -0.11999999999999999556 52.2583610000 44.0328300000 56.8277800000
243      14   2 -0.36299999999999998934 51.6249660000 41.2413260000 54.7713990000
244      14   3  0.23999999999999999112 51.5147210000 39.4310440000 53.2440240000
245      14   3  0.12149999999999999689 52.0087820000 39.8700240000 54.6114440000
246      14   4  0.64670000000000005258 52.2161100000 41.9101140000 55.7877530000
247      14   3  0.08999999999999999667 51.8303420000 37.9605410000 52.9151230000
248      14   3  0.08999999999999999667 51.6341520000 43.3366820000 55.8397840000
249      14   5  0.02999999999999999889 51.5407340000 39.2522570000 55.3830190000
250      14   5  0.02999999999999999889 53.0961520000 39.7608880000 54.6470920000
251      14   5  0.14999999999999999445 51.4628720000 37.6851170000 51.9233110000
252      14   5  0.14999999999999999445 51.7734710000 43.8527200000 54.8853460000
253      15   1 -0.11999999999999999556 41.3569750000 41.1310980000 23.7898280000
254      15   1 -0.11999999999999999556 41.8348650000 39.4320370000 22.4662900000
255      15   1 -0.23260000000000000120 43.8274120000 38.7134050000 26.8283780000
256      15   1 -0.23260000000000000120 44.3114370000 37.4989980000 25.0766390000
257      15   1 -0.11999999999999999556 39.6311050000 38.0747950000 23.4083370000
258      15   1 -0.11999999999999999556 39.1504150000 39.7785800000 24.7335600000
259      15   1 -0.11999999999999999556 45.5605170000 40.6992740000 25.9445700000
260      15   1 -0.11999999999999999556 46.5040350000 38.7084230000 26.1152800000
261      15   2 -0.36299999999999998934 43.3445420000 39.5118530000 24.7756930000
262      15   3  0.23999999999999999112 41.2658140000 39.7713130000 23.6649640000
263      15   3  0.12149999999999999689 41.9800600000 39.0755720000 24.8105790000
264      15   4  0.64670000000000005258 44.2173580000 38.7964050000 25.5213680000
265      15   3  0.08999999999999999667 39.7688240000 39.4251700000 23.5681270000
266      15   3  0.08999999999999999667 45.6090790000 39.4496910000 25.4081950000
267      15   5  0.02999999999999999889 41.5139400000 39.3620060000 25.7575320000
268      15   5  0.02999999999999999889 41.9108600000 37.9939050000 24.6664910000
269      15   5  0.14999999999999999445 39.2926230000 39.9414890000 22.7307320000
270      15   5  0.14999999999999999445 45.9301100000 39.5116790000 24.3642820000
271      16   1 -0.11999999999999999556 39.1189500000 51.2422500000 16.0643580000
272      16   1 -0.11999999999999999556 41.0236270000 50.3389010000 15.4138960000
273      16   1 -0.23260000000000000120 37.8529590000 46.8412230000 16.5218690000
274      16   1 -0.23260000000000000120 39.9779700000 46.4645260000 16.1753380000
275      16   1 -0.11999999999999999556 40.0727100000 50.1852340000 12.8335370000
276      16   1 -0.11999999999999999556 38.1641550000 51.0927710000 13.4846560000
277      16   1 -0.11999999999999999556 38.4123090000 47.6779960000 19.1132750000
278      16   1 -0.11999999999999999556 39.1904980000 45.6640730000 18.6427520000
279      16   2 -0.36299999999999998934 39.3036000000 48.5632800000 16.6417050000
280      16   3  0.23999999999999999112 39.6779220000 50.3780720000 15.1623260000
281      16   3  0.12149999999999999689 39.0698360000 48.9926700000 15.2947280000
282      16   4  0.64670000000000005258 39.1041030000 47.2487220000 16.8903870000
283      16   3  0.08999999999999999667 39.4975340000 51.0018650000 13.7664340000
284      16   3  0.08999999999999999667 39.3405350000 46.9926170000 18.3920490000
285      16   5  0.02999999999999999889 37.9960790000 49.0458960000 15.0941140000
286      16   5  0.02999999999999999889 39.5557150000 48.3227310000 14.5801250000
287      16   5  0.14999999999999999445 39.9512080000 51.9946690000 13.7107190000
288      16   5  0.14999999999999999445 40.3437930000 47.3097200000 18.6913400000
289      17   1 -0.11999999999999999556 20.0979130000 13.9352420000 37.0304280000
290      17   1 -0.11999999999999999556 20.9547820000 15.2264690000 35.4602540000
291      17   1 -0.23260000000000000120 16.5719500000 13.6734730000 34.0842200000
292      17   1 -0.23260000000000000120 17.9654360000 14.6766260000 32.7316170000
293      17   1 -0.11999999999999999556 19.6796300000 17.4085900000 36.5549910000
294      17   1 -0.11999999999999999556 18.8222950000 16.1150750000 38.1304140000
295      17   1 -0.11999999999999999556 17.9447130000 11.2804110000 33.7418500000
296      17   1 -0.11999999999999999556 17.2866240000 12.2059260000 31.8462770000
297      17   2 -0.36299999999999998934 18.7548690000 13.7752160000 34.6398360000
298      17   3  0.23999999999999999112 19.8749520000 15.0620880000 36.2865060000
299      17   3  0.12149999999999999689 18.5978840000 14.9287410000 35.4753630000
300      17   4  0.64670000000000005258 17.8613620000 13.6437250000 33.6328310000
301      17   3  0.08999999999999999667 19.8668740000 16.2536140000 37.2613770000
302      17   3  0.08999999999999999667 18.1490870000 12.3229770000 32.8916720000
303      17   5  0.02999999999999999889 17.7492980000 14.7947430000 36.1521050000
304      17   5  0.02999999999999999889 18.4638710000 15.8323520000 34.8744630000
305      17   5  0.14999999999999999445 20.8027570000 16.3173680000 37.8223070000
306      17   5  0.14999999999999999445 19.1779520000 12.2967340000 32.5209900000
307      18   1 -0.11999999999999999556 18.1555910000 33.9721640000 12.8617470000
308      18   1 -0.11999999999999999556 16.5703090000 35.4036710000 12.3098350000
309      18   1 -0.23260000000000000120 14.6709660000 31.7991490000 14.9393610000
310      18   1 -0.23260000000000000120 13.4570050000 33.2607510000 13.8587730000
311      18   1 -0.11999999999999999556 16.9500000000 36.7443610000 14.6856500000
312      18   1 -0.11999999999999999556 18.5406720000 35.3110110000 15.2383090000
313      18   1 -0.11999999999999999556 15.0741720000 30.3766840000 12.5851170000
314      18   1 -0.11999999999999999556 12.9439760000 30.7212110000 13.0609580000
315      18   2 -0.36299999999999998934 15.6209400000 33.0027740000 13.2861720000
316      18   3  0.23999999999999999112 17.1803780000 34.7869640000 13.3696620000
317      18   3  0.12149999999999999689 16.1716250000 33.9845370000 14.1728840000
318      18   4  0.64670000000000005258 14.5001330000 32.3772630000 13.7130570000