Generated by pymatgen.io.lammps.data.LammpsData

18062  atoms
17435  bonds
31224  angles
31485  dihedrals

   15  atom types
   14  bond types
   22  angle types
   20  dihedral types

-0.2500000000 60.2500000000  xlo xhi
-0.2500000000 60.2500000000  ylo yhi
-0.2500000000 60.2500000000  zlo zhi

Masses

1   15.99940
2   12.01070
3    1.00794
4   14.01000
5   32.06000
6   16.00000
7   12.01000
8   19.00000
9   16.00000
10  12.01000
11  12.01000
12   1.00800
13  32.06000
14  32.06000
15   6.94100

Pair Coeffs

1     0.1400  2.900000
2     0.0660  3.500000
3     0.0300  2.500000
4       0.17  3.249999
5       0.25  3.549340
6       0.21  2.959566
7      0.066  3.499450
8      0.053  2.948875
9       0.14  2.900000
10     0.066  3.500000
11     0.066  3.500000
12      0.03  2.500000
13  0.344001  3.590322
14  0.344001  3.590322
15  0.165057  1.506000

Bond Coeffs

1   320.00  1.410
2   268.00  1.529
3   340.00  1.090
4   441.80  1.323
5   235.40  1.818
6   637.10  1.442
7   372.00  1.570
8   320.00  1.410
9   320.00  1.380
10  268.00  1.529
11  340.00  1.090
12  340.00  1.090
13  157.87  2.133
14  154.36  2.117


Angle Coeffs

1    60.00  109.50
2    50.00  109.50
3    35.00  109.50
4    37.50  110.70
5    33.00  107.80
6    93.30  107.10
7    82.90  111.80
8   104.00  102.60
9   115.80  118.50
10   94.30  113.60
11   97.50  100.20
12   80.20  125.60
13   60.00  109.50
14   50.00  109.50
15   35.00  109.50
16   37.50  110.70
17   33.00  107.80
18   92.60  111.55
19   35.00  109.50
20   33.00  109.50
21   73.56  112.74
22   73.56  112.74


Dihedral Coeffs

1 3 0.062500000 1 0.000000000 -0.011000000 2 180.000000000 0.280500000 3 0.000000000
2 1 0.370500000 3 0.000000000
3 3 1.119000000 1 0.000000000 -1.163500000 2 180.000000000 -0.341500000 3 0.000000000
4 1 0.234000000 3 0.000000000
5 1 0.150000000 3 0.000000000
6 1 0.173400000 3 0.000000000
7 1 0.158000000 3 0.000000000
8 1 -0.001800000 3 0.000000000
9 3 3.916460000 1 0.000000000 -1.245000000 2 180.000000000 -0.381800000 3 0.000000000
10 3 0.062500000 1 0.000000000 -0.011000000 2 180.000000000 0.280500000 3 0.000000000
11 3 0.062500000 1 0.000000000 -0.011000000 2 180.000000000 0.280500000 3 0.000000000
12 1 0.370500000 3 0.000000000
13 1 0.370500000 3 0.000000000
14 3 -0.533500000 1 0.000000000 -0.783500000 2 180.000000000 0.337500000 3 0.000000000
15 1 0.370500000 3 0.000000000
16 3 1.119000000 1 0.000000000 -1.163500000 2 180.000000000 -0.341500000 3 0.000000000
17 1 0.234000000 3 0.000000000
18 1 0.150000000 3 0.000000000
19 4 5.431700000 1 0.000000000 -3.590000000 2 180.000000000 1.055600000 3 0.000000000 0.058320000 4 180.000000000
20 4 5.431700000 1 0.000000000 -3.590000000 2 180.000000000 1.055600000 3 0.000000000 0.058320000 4 180.000000000


Atoms

1         1   1 -0.40000000000000002220 56.2008090000 40.5291660000 49.4326600000
2         1   1 -0.40000000000000002220 56.5826610000 42.9928450000 47.9350400000
3         1   1 -0.40000000000000002220 55.9439710000 36.9557840000 49.7490790000
4         1   1 -0.40000000000000002220 54.9046160000 45.1276470000 46.8742660000
5         1   2  0.14000000000000001332 55.3719750000 41.6540540000 49.6524590000
6         1   2  0.14000000000000001332 56.1251560000 42.9243830000 49.2752620000
7         1   2  0.14000000000000001332 55.5747300000 39.2969730000 49.7460700000
8         1   2  0.14000000000000001332 55.6186740000 42.8327840000 46.9066140000
9         1   2  0.14000000000000001332 56.5723070000 38.1888180000 49.4438050000
10        1   2  0.14000000000000001332 54.4365960000 43.7952600000 46.9526190000
11        1   2  0.11000000000000000056 56.7765680000 35.8348960000 49.5125830000
12        1   2  0.11000000000000000056 53.8632130000 46.0841100000 46.9138220000
13        1   3  0.02999999999999999889 54.4375260000 41.5541940000 49.0739590000
14        1   3  0.02999999999999999889 55.0881340000 41.7280760000 50.7163990000
15        1   3  0.02999999999999999889 55.4891110000 43.7910240000 49.5186750000
16        1   3  0.02999999999999999889 57.0338150000 42.9932410000 49.8803460000
17        1   3  0.02999999999999999889 55.2861050000 39.2605480000 50.8092400000
18        1   3  0.02999999999999999889 54.6639790000 39.1536550000 49.1421380000
19        1   3  0.02999999999999999889 56.1743240000 42.9966310000 45.9784060000
20        1   3  0.02999999999999999889 55.2266450000 41.8030770000 46.8917780000
21        1   3  0.02999999999999999889 56.8637670000 38.2305430000 48.3820050000
22        1   3  0.02999999999999999889 57.4810470000 38.3294690000 50.0505380000
23        1   3  0.02999999999999999889 53.7740070000 43.5612540000 46.0992040000
24        1   3  0.02999999999999999889 53.8406290000 43.6552320000 47.8706210000
25        1   3  0.02999999999999999889 57.0723640000 35.7713840000 48.4525970000
26        1   3  0.02999999999999999889 57.6874180000 35.8736050000 50.1312390000
27        1   3  0.02999999999999999889 56.1992370000 34.9456350000 49.7779870000
28        1   3  0.02999999999999999889 53.1688290000 45.9620040000 46.0669960000
29        1   3  0.02999999999999999889 53.2878800000 46.0151440000 47.8521820000
30        1   3  0.02999999999999999889 54.3316110000 47.0704640000 46.8529590000
31        2   1 -0.40000000000000002220  2.8723320000 46.3848080000 13.6038690000
32        2   1 -0.40000000000000002220  4.5385680000 46.4794980000 11.2220440000
33        2   1 -0.40000000000000002220  2.1427190000 47.0755120000 17.0572350000
34        2   1 -0.40000000000000002220  6.3008600000 44.6620350000  9.7764960000
35        2   2  0.14000000000000001332  3.0441890000 45.2434840000 12.7862530000
36        2   2  0.14000000000000001332  3.3764150000 45.6798650000 11.3641100000
37        2   2  0.14000000000000001332  2.5717460000 46.0723910000 14.9531440000
38        2   2  0.14000000000000001332  5.7569410000 45.9569350000 11.7270630000
39        2   2  0.14000000000000001332  2.4350620000 47.3872980000 15.7060520000
40        2   2  0.14000000000000001332  6.1673900000 44.5926980000 11.1828450000
41        2   2  0.11000000000000000056  1.9863060000 48.2241380000 17.8707030000
42        2   2  0.11000000000000000056  6.6785090000 43.4294790000  9.1941800000
43        2   3  0.02999999999999999889  3.8344010000 44.5954050000 13.2026500000
44        2   3  0.02999999999999999889  2.1179990000 44.6442830000 12.7524180000
45        2   3  0.02999999999999999889  3.4375820000 44.7805820000 10.7297460000
46        2   3  0.02999999999999999889  2.5635480000 46.3053280000 10.9838840000
47        2   3  0.02999999999999999889  1.6322010000 45.5005800000 15.0255790000
48        2   3  0.02999999999999999889  3.3737100000 45.4659230000 15.4045770000
49        2   3  0.02999999999999999889  6.5133610000 46.6948460000 11.4433720000
50        2   3  0.02999999999999999889  5.7338150000 45.8984050000 12.8271720000
51        2   3  0.02999999999999999889  3.3732740000 47.9597650000 15.6276340000
52        2   3  0.02999999999999999889  1.6306050000 47.9918550000 15.2576400000
53        2   3  0.02999999999999999889  7.1271290000 44.3129340000 11.6547920000
54        2   3  0.02999999999999999889  5.4349300000 43.8143660000 11.4570990000
55        2   3  0.02999999999999999889  2.9069550000 48.8300310000 17.8906280000
56        2   3  0.02999999999999999889  1.1557190000 48.8561180000 17.5177070000
57        2   3  0.02999999999999999889  1.7660130000 47.8726690000 18.8818790000
58        2   3  0.02999999999999999889  7.6561730000 43.0868720000  9.5696630000
59        2   3  0.02999999999999999889  5.9309690000 42.6435320000  9.3935700000
60        2   3  0.02999999999999999889  6.7470120000 43.5926320000  8.1149750000
61        3   1 -0.40000000000000002220 10.5218730000 40.8584290000 19.9307870000
62        3   1 -0.40000000000000002220  8.7282070000 38.5695890000 19.9794430000
63        3   1 -0.40000000000000002220 11.6925890000 44.0100640000 18.6533820000
64        3   1 -0.40000000000000002220  8.7824470000 35.7960320000 19.0833980000
65        3   2  0.14000000000000001332 11.0206800000 39.5416610000 20.0648270000
66        3   2  0.14000000000000001332  9.9522500000 38.6524110000 20.6901140000
67        3   2  0.14000000000000001332 11.4482640000 41.7558050000 19.3434070000
68        3   2  0.14000000000000001332  8.7864820000 38.1553030000 18.6238910000
69        3   2  0.14000000000000001332 10.7697130000 43.1141360000 19.2483480000
70        3   2  0.14000000000000001332  9.4622810000 36.8116560000 18.3715190000
71        3   2  0.11000000000000000056 11.1792470000 45.3221760000 18.5106200000
72        3   2  0.11000000000000000056  9.3535680000 34.5147080000 18.9019160000
73        3   3  0.02999999999999999889 11.3393060000 39.1559220000 19.0812060000
74        3   3  0.02999999999999999889 11.9070550000 39.5248490000 20.7221470000
75        3   3  0.02999999999999999889 10.3832670000 37.6505700000 20.8495140000
76        3   3  0.02999999999999999889  9.6764460000 39.0595220000 21.6672130000
77        3   3  0.02999999999999999889 12.3616300000 41.8360510000 19.9551960000
78        3   3  0.02999999999999999889 11.7425390000 41.4148560000 18.3374760000
79        3   3  0.02999999999999999889  7.7406630000 38.0917620000 18.3086330000
80        3   3  0.02999999999999999889  9.2844170000 38.9159140000 18.0012090000
81        3   3  0.02999999999999999889  9.8540410000 43.0305130000 18.6411730000
82        3   3  0.02999999999999999889 10.4793080000 43.4570880000 20.2542120000
83        3   3  0.02999999999999999889  9.4332990000 36.6152700000 17.2840020000
84        3   3  0.02999999999999999889 10.5253950000 36.8356130000 18.6660170000
85        3   3  0.02999999999999999889 10.2845290000 45.3350960000 17.8668740000
86        3   3  0.02999999999999999889 10.9173120000 45.7593790000 19.4874130000
87        3   3  0.02999999999999999889 11.9642960000 45.9242580000 18.0461500000
88        3   3  0.02999999999999999889  9.3275530000 34.2058050000 17.8445150000
89        3   3  0.02999999999999999889 10.3996320000 34.4865550000 19.2501160000
90        3   3  0.02999999999999999889  8.7602200000 33.8126170000 19.4943700000
91        4   1 -0.40000000000000002220 26.9619400000 33.0484970000  4.8873720000
92        4   1 -0.40000000000000002220 28.4143720000 35.5351430000  5.2940990000
93        4   1 -0.40000000000000002220 24.4511600000 30.6095140000  5.7135020000
94        4   1 -0.40000000000000002220 30.9878020000 36.3479840000  6.3964620000
95        4   2  0.14000000000000001332 28.3721690000 33.0957280000  4.7890050000
96        4   2  0.14000000000000001332 28.8100320000 34.5042490000  4.4047710000
97        4   2  0.14000000000000001332 26.4642060000 31.7734250000  5.2547280000
98        4   2  0.14000000000000001332 28.7922870000 35.4045440000  6.6552290000
99        4   2  0.14000000000000001332 24.9490230000 31.8821190000  5.3380290000
100       4   2  0.14000000000000001332 30.2856470000 35.2343960000  6.9135110000
101       4   2  0.11000000000000000056 23.0396320000 30.5758190000  5.8230100000
102       4   2  0.11000000000000000056 32.3856920000 36.2628410000  6.5953570000
103       4   3  0.02999999999999999889 28.8286670000 32.7791070000  5.7425190000
104       4   3  0.02999999999999999889 28.7328260000 32.4013530000  4.0106850000
105       4   3  0.02999999999999999889 29.9034310000 34.5027180000  4.2656800000
106       4   3  0.02999999999999999889 28.3495980000 34.7727590000  3.4495580000
107       4   3  0.02999999999999999889 26.7440230000 31.0111900000  4.5093000000
108       4   3  0.02999999999999999889 26.8696050000 31.4589620000  6.2301790000
109       4   3  0.02999999999999999889 28.4535720000 36.3319430000  7.1267860000
110       4   3  0.02999999999999999889 28.2603980000 34.5657140000  7.1323640000
111       4   3  0.02999999999999999889 24.6715700000 32.6484770000  6.0795310000
112       4   3  0.02999999999999999889 24.5432120000 32.1922950000  4.3619030000
113       4   3  0.02999999999999999889 30.4344300000 35.1492520000  8.0056260000
114       4   3  0.02999999999999999889 30.6671040000 34.3021310000  6.4630830000
115       4   3  0.02999999999999999889 22.6797440000 31.2815440000  6.5895150000
116       4   3  0.02999999999999999889 22.5564770000 30.8205840000  4.8635660000
117       4   3  0.02999999999999999889 22.7653760000 29.5587860000  6.1144960000
118       4   3  0.02999999999999999889 32.6405330000 36.2211820000  7.6665780000
119       4   3  0.02999999999999999889 32.8101990000 35.3742860000  6.0988190000
120       4   3  0.02999999999999999889 32.8270150000 37.1625270000  6.1574130000
121       5   1 -0.40000000000000002220 16.8182230000 22.0306840000 19.2191630000
122       5   1 -0.40000000000000002220 17.8230500000 24.7053500000 18.6761400000
123       5   1 -0.40000000000000002220 16.9768950000 18.4398940000 19.0918920000
124       5   1 -0.40000000000000002220 17.2742860000 26.8463780000 16.7752680000
125       5   2  0.14000000000000001332 15.9616820000 23.0505030000 18.7427610000
126       5   2  0.14000000000000001332 16.5170990000 24.4121130000 19.1437890000
127       5   2  0.14000000000000001332 16.3843130000 20.7249220000 18.8797400000
128       5   2  0.14000000000000001332 18.0491620000 24.6272920000 17.2778080000
129       5   2  0.14000000000000001332 17.4057780000 19.7454730000 19.4381490000
130       5   2  0.14000000000000001332 17.1349380000 25.4868190000 16.4110960000
131       5   2  0.11000000000000000056 17.8480200000 17.4266980000 19.5610540000
132       5   2  0.11000000000000000056 16.4525690000 27.7108740000 16.0147840000
133       5   3  0.02999999999999999889 15.8490240000 22.9690900000 17.6479970000
134       5   3  0.02999999999999999889 14.9536300000 22.9500440000 19.1806550000
135       5   3  0.02999999999999999889 15.8015310000 25.1873040000 18.8245520000
136       5   3  0.02999999999999999889 16.5982190000 24.4572650000 20.2337020000
137       5   3  0.02999999999999999889 15.3912540000 20.5152240000 19.3096480000
138       5   3  0.02999999999999999889 16.3127070000 20.6059630000 17.7863680000
139       5   3  0.02999999999999999889 19.0823250000 24.9622320000 17.1453200000
140       5   3  0.02999999999999999889 17.9810300000 23.5853060000 16.9259210000
141       5   3  0.02999999999999999889 18.3986910000 19.9604070000 19.0114930000
142       5   3  0.02999999999999999889 17.4744010000 19.8612540000 20.5315840000
143       5   3  0.02999999999999999889 17.4230000000 25.3319150000 15.3551010000
144       5   3  0.02999999999999999889 16.0811020000 25.1740020000 16.5064330000
145       5   3  0.02999999999999999889 18.8587260000 17.5378070000 19.1353470000
146       5   3  0.02999999999999999889 17.9247420000 17.4402910000 20.6600580000
147       5   3  0.02999999999999999889 17.4273390000 16.4697910000 19.2418490000
148       5   3  0.02999999999999999889 16.6984010000 27.6632120000 14.9417100000
149       5   3  0.02999999999999999889 15.3845510000 27.4667230000 16.1413250000
150       5   3  0.02999999999999999889 16.6329790000 28.7264000000 16.3783150000
151       6   1 -0.40000000000000002220 39.0788300000  2.6738330000 44.7174040000
152       6   1 -0.40000000000000002220 40.7102370000  4.5083060000 43.1580400000
153       6   1 -0.40000000000000002220 35.9589680000  1.4350730000 46.0085590000
154       6   1 -0.40000000000000002220 42.4271600000  6.8063890000 43.6771190000
155       6   2  0.14000000000000001332 40.2808650000  3.2067440000 45.2387190000
156       6   2  0.14000000000000001332 41.2173820000  3.5702060000 44.0923670000
157       6   2  0.14000000000000001332 38.1390260000  2.3180890000 45.7167610000
158       6   2  0.14000000000000001332 40.2646900000  5.7571850000 43.6623600000
159       6   2  0.14000000000000001332 36.9024730000  1.7832320000 45.0100820000
160       6   2  0.14000000000000001332 41.2875580000  6.5458270000 44.4732670000
161       6   2  0.11000000000000000056 34.7536990000  0.9156850000 45.4764880000
162       6   2  0.11000000000000000056 43.4272350000  7.5350810000 44.3625130000
163       6   3  0.02999999999999999889 40.0624550000  4.0833600000 45.8724940000
164       6   3  0.02999999999999999889 40.7926000000  2.4653340000 45.8762550000
165       6   3  0.02999999999999999889 42.1720320000  3.9175260000 44.5200170000
166       6   3  0.02999999999999999889 41.4204810000  2.6734920000 43.4997590000
167       6   3  0.02999999999999999889 38.5498930000  1.5458140000 46.3873880000
168       6   3  0.02999999999999999889 37.8684570000  3.1920810000 46.3313110000
169       6   3  0.02999999999999999889 39.9949130000  6.3345580000 42.7729640000
170       6   3  0.02999999999999999889 39.3578120000  5.6327290000 44.2757790000
171       6   3  0.02999999999999999889 36.4966910000  2.5546940000 44.3360670000
172       6   3  0.02999999999999999889 37.1719020000  0.9069870000 44.3990850000
173       6   3  0.02999999999999999889 40.8108080000  7.4893090000 44.7967660000
174       6   3  0.02999999999999999889 41.5793950000  6.0024810000 45.3882080000
175       6   3  0.02999999999999999889 34.2518650000  1.6515840000 44.8270950000
176       6   3  0.02999999999999999889 34.9342600000 -0.0025910000 44.8950680000
177       6   3  0.02999999999999999889 34.1039040000  0.6827310000 46.3238580000
178       6   3  0.02999999999999999889 43.0587910000  8.5215100000 44.6871660000
179       6   3  0.02999999999999999889 43.7898600000  6.9870110000 45.2481810000
180       6   3  0.02999999999999999889 44.2569500000  7.6753110000 43.6640120000
181       7   1 -0.40000000000000002220  3.6211080000 50.2623680000 26.4698730000
182       7   1 -0.40000000000000002220  2.1470950000 49.0459980000 28.6621600000
183       7   1 -0.40000000000000002220  6.4061360000 50.5201870000 24.2088350000
184       7   1 -0.40000000000000002220  1.6853730000 49.5949530000 31.4877420000
185       7   2  0.14000000000000001332  3.0242460000 51.0549520000 27.4779490000
186       7   2  0.14000000000000001332  1.8441810000 50.3050420000 28.0848870000
187       7   2  0.14000000000000001332  4.7402520000 50.8784040000 25.8562660000
188       7   2  0.14000000000000001332  3.1454440000 49.0123120000 29.6694900000
189       7   2  0.14000000000000001332  5.2818730000 49.9082420000 24.8170520000
190       7   2  0.14000000000000001332  2.9101460000 49.9298730000 30.8646880000
191       7   2  0.11000000000000000056  7.0051880000 49.7134310000 23.2109270000
192       7   2  0.11000000000000000056  1.3934050000 50.4070930000 32.6084970000
193       7   3  0.02999999999999999889  3.7722430000 51.3162900000 28.2460830000
194       7   3  0.02999999999999999889  2.6469800000 52.0029250000 27.0571980000
195       7   3  0.02999999999999999889  1.3519690000 50.9655200000 28.8172580000
196       7   3  0.02999999999999999889  1.1210310000 50.0794250000 27.2957860000
197       7   3  0.02999999999999999889  4.4520780000 51.8247330000 25.3700770000
198       7   3  0.02999999999999999889  5.5222440000 51.1032670000 26.5996820000
199       7   3  0.02999999999999999889  3.1551460000 47.9742020000 30.0150300000
200       7   3  0.02999999999999999889  4.1375890000 49.2402910000 29.2477380000
201       7   3  0.02999999999999999889  5.5640240000 48.9610580000 25.3042300000
202       7   3  0.02999999999999999889  4.5017090000 49.6866620000 24.0714260000
203       7   3  0.02999999999999999889  3.7553380000 49.7994660000 31.5652200000
204       7   3  0.02999999999999999889  2.9044460000 50.9906990000 30.5611600000
205       7   3  0.02999999999999999889  7.3671000000 48.7600910000 23.6295690000
206       7   3  0.02999999999999999889  6.2989540000 49.4944710000 22.3941220000
207       7   3  0.02999999999999999889  7.8535130000 50.2751790000 22.8117790000
208       7   3  0.02999999999999999889  2.1625820000 50.3086260000 33.3913540000
209       7   3  0.02999999999999999889  1.3140100000 51.4702610000 32.3262640000
210       7   3  0.02999999999999999889  0.4323630000 50.0699000000 33.0068610000
211       8   1 -0.40000000000000002220 11.8354940000 53.3035350000 52.9263170000
212       8   1 -0.40000000000000002220 14.3297340000 54.7964120000 53.0184110000
213       8   1 -0.40000000000000002220  8.2532330000 53.0172530000 52.7828270000
214       8   1 -0.40000000000000002220 16.2913090000 55.5524710000 55.0380760000
215       8   2  0.14000000000000001332 12.8720570000 52.9405970000 53.8176460000
216       8   2  0.14000000000000001332 14.2119460000 53.4039480000 53.2579170000
217       8   2  0.14000000000000001332 10.5463470000 52.9217260000 53.3744480000
218       8   2  0.14000000000000001332 14.0783430000 55.6702240000 54.1073580000
219       8   2  0.14000000000000001332  9.5434140000 53.3913460000 52.3313210000
220       8   2  0.14000000000000001332 14.9188770000 55.4286800000 55.3567350000
221       8   2  0.11000000000000000056  7.2210790000 53.3971900000 51.8907260000
222       8   2  0.11000000000000000056 17.1398110000 55.3386530000 56.1494870000
223       8   3  0.02999999999999999889 12.6820340000 53.3730800000 54.8149810000
224       8   3  0.02999999999999999889 12.9141470000 51.8448240000 53.9422330000
225       8   3  0.02999999999999999889 15.0105460000 53.0514970000 53.9308850000
226       8   3  0.02999999999999999889 14.3684790000 52.9418620000 52.2788850000
227       8   3  0.02999999999999999889 10.4780630000 51.8280070000 53.4931020000
228       8   3  0.02999999999999999889 10.3155100000 53.3837170000 54.3481100000
229       8   3  0.02999999999999999889 14.2994260000 56.6685480000 53.7179530000
230       8   3  0.02999999999999999889 13.0149310000 55.6444880000 54.3949210000
231       8   3  0.02999999999999999889  9.6172490000 54.4840420000 52.2101870000
232       8   3  0.02999999999999999889  9.7713900000 52.9263320000 51.3589510000
233       8   3  0.02999999999999999889 14.6231830000 56.1763810000 56.1154240000
234       8   3  0.02999999999999999889 14.7175370000 54.4339210000 55.7896650000
235       8   3  0.02999999999999999889  7.1906170000 54.4906680000 51.7548030000
236       8   3  0.02999999999999999889  7.3477830000 52.9225710000 50.9045400000
237       8   3  0.02999999999999999889  6.2781590000 53.0639280000 52.3316070000
238       8   3  0.02999999999999999889 16.9522970000 56.0729980000 56.9493430000
239       8   3  0.02999999999999999889 17.0111600000 54.3255910000 56.5659480000
240       8   3  0.02999999999999999889 18.1678930000 55.4515310000 55.7941000000
241       9   1 -0.40000000000000002220 33.7539780000 44.1892320000  7.6081860000
242       9   1 -0.40000000000000002220 31.7184000000 44.6626440000  9.6307330000
243       9   1 -0.40000000000000002220 35.6656000000 42.1076510000  5.3838060000
244       9   1 -0.40000000000000002220 31.6357500000 45.1324840000 12.5066460000
245       9   2  0.14000000000000001332 34.0057900000 45.0329900000  8.7151240000
246       9   2  0.14000000000000001332 32.6910940000 45.6112470000  9.2255020000
247       9   2  0.14000000000000001332 34.9242950000 43.5946740000  7.0739960000
248       9   2  0.14000000000000001332 32.0985720000 43.7184310000 10.6189030000
249       9   2  0.14000000000000001332 34.4966800000 42.7090810000  5.9132200000
250       9   2  0.14000000000000001332 32.6237060000 44.3037930000 11.9255670000
251       9   2  0.11000000000000000056 35.4018050000 41.2539890000  4.2850740000
252       9   2  0.11000000000000000056 32.0502180000 45.7175100000 13.7260180000
253       9   3  0.02999999999999999889 34.5320510000 44.4719440000  9.5063930000
254       9   3  0.02999999999999999889 34.6591530000 45.8736890000  8.4246860000
255       9   3  0.02999999999999999889 32.9153600000 46.3178430000 10.0411600000
256       9   3  0.02999999999999999889 32.2103010000 46.1709660000  8.4179860000
257       9   3  0.02999999999999999889 35.6296740000 44.3631930000  6.7179360000
258       9   3  0.02999999999999999889 35.4399930000 42.9876340000  7.8357690000
259       9   3  0.02999999999999999889 31.1860970000 43.1509720000 10.8251660000
260       9   3  0.02999999999999999889 32.8531110000 43.0187780000 10.2247500000
261       9   3  0.02999999999999999889 33.7873380000 41.9451970000  6.2701840000
262       9   3  0.02999999999999999889 33.9849540000 43.3164100000  5.1496740000
263       9   3  0.02999999999999999889 32.8758030000 43.4631900000 12.5978280000
264       9   3  0.02999999999999999889 33.5529310000 44.8764360000 11.7639080000
265       9   3  0.02999999999999999889 34.7361480000 40.4238040000  4.5728080000
266       9   3  0.02999999999999999889 34.9384610000 41.8047070000  3.4508660000
267       9   3  0.02999999999999999889 36.3620600000 40.8472180000  3.9579920000
268       9   3  0.02999999999999999889 32.2809250000 44.9522570000 14.4845390000
269       9   3  0.02999999999999999889 32.9408280000 46.3527710000 13.5862210000
270       9   3  0.02999999999999999889 31.2218210000 46.3361350000 14.0824680000
271      10   1 -0.40000000000000002220 31.1656810000 30.0962400000 32.3842480000
272      10   1 -0.40000000000000002220 33.4611630000 31.5385640000 31.3312230000
273      10   1 -0.40000000000000002220 28.6411200000 29.4170080000 34.8541430000
274      10   1 -0.40000000000000002220 36.3335280000 31.0994290000 31.0964210000
275      10   2  0.14000000000000001332 32.2514050000 29.4097800000 31.7921090000
276      10   2  0.14000000000000001332 32.9537550000 30.3269200000 30.7976980000
277      10   2  0.14000000000000001332 30.4590950000 29.3201210000 33.3365470000
278      10   2  0.14000000000000001332 34.3602590000 31.4451250000 32.4245870000
279      10   2  0.14000000000000001332 29.3429840000 30.1897240000 33.8956700000
280      10   2  0.14000000000000001332 35.5988030000 30.5865670000 32.1907650000
281      10   2  0.11000000000000000056 27.5648820000 30.1173290000 35.4514700000
282      10   2  0.11000000000000000056 37.5008160000 30.3521870000 30.8136230000
283      10   3  0.02999999999999999889 32.9465190000 29.0562720000 32.5729260000
284      10   3  0.02999999999999999889 31.8983670000 28.5187240000 31.2449380000
285      10   3  0.02999999999999999889 33.7509090000 29.7526560000 30.2980600000
286      10   3  0.02999999999999999889 32.2362770000 30.6412730000 30.0341950000
287      10   3  0.02999999999999999889 30.0318710000 28.4172240000 32.8704820000
288      10   3  0.02999999999999999889 31.1251320000 28.9975840000 34.1533130000
289      10   3  0.02999999999999999889 34.6733620000 32.4761890000 32.6144230000
290      10   3  0.02999999999999999889 33.8463500000 31.0737150000 33.3257830000
291      10   3  0.02999999999999999889 29.7717800000 31.0943310000 34.3560260000
292      10   3  0.02999999999999999889 28.6746560000 30.5087230000 33.0800160000
293      10   3  0.02999999999999999889 36.2056620000 30.6062120000 33.1145820000
294      10   3  0.02999999999999999889 35.3277140000 29.5330350000 32.0061180000
295      10   3  0.02999999999999999889 27.9172310000 31.0158340000 35.9840450000
296      10   3  0.02999999999999999889 26.8183220000 30.4223230000 34.7007980000
297      10   3  0.02999999999999999889 27.0975790000 29.4361070000 36.1670830000
298      10   3  0.02999999999999999889 38.1981860000 30.3520730000 31.6667760000
299      10   3  0.02999999999999999889 37.2584730000 29.3070220000 30.5583110000
300      10   3  0.02999999999999999889 37.9851970000 30.8269990000 29.9557630000
301      11   1 -0.40000000000000002220  6.9639020000 55.8323800000 54.0212360000
302      11   1 -0.40000000000000002220  5.6898980000 54.4814690000 56.2596170000
303      11   1 -0.40000000000000002220  8.9764930000 58.4183200000 52.5388290000
304      11   1 -0.40000000000000002220  3.0147150000 54.3068720000 57.4047660000
305      11   2  0.14000000000000001332  5.6267200000 55.3791880000 53.9363090000
306      11   2  0.14000000000000001332  5.4219980000 54.2110740000 54.8938530000
307      11   2  0.14000000000000001332  7.2427140000 56.9306810000 53.1700630000
308      11   2  0.14000000000000001332  4.9922250000 55.5603560000 56.8611200000
309      11   2  0.14000000000000001332  8.6992390000 57.3147210000 53.3835600000
310      11   2  0.14000000000000001332  3.4708870000 55.4911330000 56.7803700000
311      11   2  0.11000000000000000056 10.3135490000 58.8736650000 52.6412010000
312      11   2  0.11000000000000000056  1.6074850000 54.1679370000 57.3685850000
313      11   3  0.02999999999999999889  4.9318620000 56.2072660000 54.1583170000
314      11   3  0.02999999999999999889  5.3973210000 55.0285240000 52.9153170000
315      11   3  0.02999999999999999889  4.3965220000 53.8290730000 54.7621510000
316      11   3  0.02999999999999999889  6.1166690000 53.4081610000 54.6306190000
317      11   3  0.02999999999999999889  7.0776100000 56.6627060000 52.1137050000
318      11   3  0.02999999999999999889  6.5923420000 57.7880110000 53.4082700000
319      11   3  0.02999999999999999889  5.2938030000 55.5331980000 57.9125370000
320      11   3  0.02999999999999999889  5.3181160000 56.5241830000 56.4379960000
321      11   3  0.02999999999999999889  8.8633550000 57.5767400000 54.4411610000
322      11   3  0.02999999999999999889  9.3497770000 56.4592250000 53.1414010000
323      11   3  0.02999999999999999889  3.0623440000 56.3845020000 57.2874070000
324      11   3  0.02999999999999999889  3.1225370000 55.5274390000 55.7340200000
325      11   3  0.02999999999999999889 10.5460180000 59.2085340000 53.6653690000
326      11   3  0.02999999999999999889 11.0290330000 58.0855590000 52.3568580000
327      11   3  0.02999999999999999889 10.4175160000 59.7181390000 51.9552050000
328      11   3  0.02999999999999999889  1.1051990000 54.9950630000 57.8956180000
329      11   3  0.02999999999999999889  1.2323120000 54.1330160000 56.3320950000
330      11   3  0.02999999999999999889  1.3655760000 53.2258940000 57.8686150000
331      12   1 -0.40000000000000002220 20.4673910000 10.3054620000  4.6876250000
332      12   1 -0.40000000000000002220 22.8061700000 11.4757750000  5.9599740000