Generated by pymatgen.io.lammps.data.LammpsData

16272  atoms
15663  bonds
28288  angles
29817  dihedrals

   17  atom types
   18  bond types
   32  angle types
   32  dihedral types

-0.2500000000 60.2500000000  xlo xhi
-0.2500000000 60.2500000000  ylo yhi
-0.2500000000 60.2500000000  zlo zhi

Masses

1   18.998403
2   15.999400
3   12.010700
4   12.010700
5    1.007940
6   14.010000
7   32.060000
8   16.000000
9   12.010000
10  19.000000
11  16.000000
12  12.010000
13  12.010000
14   1.008000
15  32.060000
16  32.060000
17   6.941000

Pair Coeffs

1     0.0530  2.950000
2     0.1400  2.900000
3     0.0660  3.500000
4     0.0660  3.500000
5     0.0300  2.500000
6       0.17  3.249999
7       0.25  3.549340
8       0.21  2.959566
9      0.066  3.499450
10     0.053  2.948875
11      0.14  2.900000
12     0.066  3.500000
13     0.066  3.500000
14      0.03  2.500000
15  0.344001  3.590322
16  0.344001  3.590322
17  0.165057  1.506000

Bond Coeffs

1   455.00  1.355
2   367.00  1.332
3   320.00  1.410
4   470.00  1.351
5   268.00  1.529
6   340.00  1.090
7   268.00  1.529
8   441.80  1.323
9   235.40  1.818
10  637.10  1.442
11  372.00  1.570
12  320.00  1.410
13  320.00  1.380
14  268.00  1.529
15  340.00  1.090
16  340.00  1.090
17  157.87  2.133
18  154.36  2.117


Angle Coeffs

1    90.00  114.194
2    58.35  112.700
3    37.50  110.700
4    33.00  107.800
5    50.00  109.500
6    35.00  109.500
7   110.00  107.787
8   110.00  110.361
9    50.00  109.500
10   50.00  109.500
11   50.00  109.500
12   77.00  109.100
13   50.00  109.500
14   40.00  107.000
15   37.50  110.700
16   93.30  107.100
17   82.90  111.800
18  104.00  102.600
19  115.80  118.500
20   94.30  113.600
21   97.50  100.200
22   80.20  125.600
23   60.00  109.500
24   50.00  109.500
25   35.00  109.500
26   37.50  110.700
27   33.00  107.800
28   92.60  111.550
29   35.00  109.500
30   33.00  109.500
31   73.56  112.740
32   73.56  112.740


Dihedral Coeffs

1 3 0.062500000 1 0.000000000 -0.011000000 2 180.000000000 0.280500000 3 0.000000000
2 3 0.062500000 1 0.000000000 -0.011000000 2 180.000000000 0.280500000 3 0.000000000
3 1 0.370500000 3 0.000000000
4 1 0.370500000 3 0.000000000
5 3 1.726500000 1 0.000000000 -1.387000000 2 180.000000000 0.335500000 3 0.000000000
6 3 0.062500000 1 0.000000000 -0.011000000 2 180.000000000 0.280500000 3 0.000000000
7 3 0.627500000 1 0.000000000 -0.309500000 2 180.000000000 0.273000000 3 0.000000000
8 1 0.150000000 3 0.000000000
9 1 0.234000000 3 0.000000000
10 1 0.150000000 3 0.000000000
11 3 0.301000000 1 0.000000000 -1.359500000 2 180.000000000 0.367000000 3 0.000000000
12 3 0.301000000 1 0.000000000 -1.359500000 2 180.000000000 0.367000000 3 0.000000000
13 1 0.221000000 3 0.000000000
14 1 0.221000000 3 0.000000000
15 2 0.518500000 1 0.000000000 -0.728500000 2 180.000000000
16 2 0.518500000 1 0.000000000 -0.728500000 2 180.000000000
17 1 0.234000000 3 0.000000000
18 1 0.173400000 3 0.000000000
19 1 0.158000000 3 0.000000000
20 1 -0.001800000 3 0.000000000
21 3 3.916460000 1 0.000000000 -1.245000000 2 180.000000000 -0.381800000 3 0.000000000
22 3 0.062500000 1 0.000000000 -0.011000000 2 180.000000000 0.280500000 3 0.000000000
23 3 0.062500000 1 0.000000000 -0.011000000 2 180.000000000 0.280500000 3 0.000000000
24 1 0.370500000 3 0.000000000
25 1 0.370500000 3 0.000000000
26 3 -0.533500000 1 0.000000000 -0.783500000 2 180.000000000 0.337500000 3 0.000000000
27 1 0.370500000 3 0.000000000
28 3 1.119000000 1 0.000000000 -1.163500000 2 180.000000000 -0.341500000 3 0.000000000
29 1 0.234000000 3 0.000000000
30 1 0.150000000 3 0.000000000
31 4 5.431700000 1 0.000000000 -3.590000000 2 180.000000000 1.055600000 3 0.000000000 0.058320000 4 180.000000000
32 4 5.431700000 1 0.000000000 -3.590000000 2 180.000000000 1.055600000 3 0.000000000 0.058320000 4 180.000000000


Atoms

1         1   1 -0.23260000000000000120 28.8075270000 15.9887470000 42.1588860000
2         1   1 -0.23260000000000000120 29.6295930000 13.9906270000 41.8099460000
3         1   1 -0.23260000000000000120 30.4437210000  9.9368100000 45.5177880000
4         1   1 -0.23260000000000000120 29.7272190000 10.7039810000 43.5968150000
5         1   1 -0.11999999999999999556 26.2274840000 14.8876100000 42.2553740000
6         1   1 -0.11999999999999999556 27.3487640000 14.4603850000 40.3999860000
7         1   1 -0.11999999999999999556 33.0491610000 10.7254390000 44.8372890000
8         1   1 -0.11999999999999999556 32.0865260000  9.3613500000 43.3892730000
9         1   2 -0.36299999999999998934 28.5109110000 14.3965680000 43.7272390000
10        1   2 -0.36299999999999998934 30.6843450000 12.1326220000 45.0592760000
11        1   3 -0.11999999999999999556 29.5268440000 14.0653900000 45.8719660000
12        1   3  0.12149999999999999689 29.6567070000 14.7819760000 44.5367010000
13        1   3  0.12149999999999999689 29.4673290000 12.5520550000 45.7361670000
14        1   4  0.64670000000000005258 28.5842870000 14.6623770000 42.4095270000
15        1   4  0.64670000000000005258 30.6991940000 10.8813700000 44.5604850000
16        1   3  0.08999999999999999667 27.2794190000 14.1962090000 41.7325000000
17        1   3  0.08999999999999999667 32.0672890000 10.6233880000 43.8979340000
18        1   5  0.05999999999999999778 30.3825140000 14.3512260000 46.4959920000
19        1   5  0.05999999999999999778 28.6159100000 14.3966020000 46.3863030000
20        1   5  0.02999999999999999889 30.5722140000 14.4842800000 44.0201910000
21        1   5  0.02999999999999999889 29.6435490000 15.8690600000 44.6638530000
22        1   5  0.02999999999999999889 29.4281260000 12.0648260000 46.7151770000
23        1   5  0.02999999999999999889 28.6046190000 12.2458490000 45.1388710000
24        1   5  0.14999999999999999445 27.1210740000 13.1248250000 41.8832850000
25        1   5  0.14999999999999999445 32.2557680000 11.3415650000 43.0957360000
26        2   1 -0.23260000000000000120 30.8105080000 13.5612180000 40.2539820000
27        2   1 -0.23260000000000000120 32.7449390000 12.5704940000 39.9961510000
28        2   1 -0.23260000000000000120 36.8486640000 12.0725160000 43.7050290000
29        2   1 -0.23260000000000000120 35.4872480000 11.2742980000 42.1879740000
30        2   1 -0.11999999999999999556 29.8913430000 11.3424330000 41.7067610000
31        2   1 -0.11999999999999999556 30.6359810000 10.8786240000 39.6787950000
32        2   1 -0.11999999999999999556 37.9110450000 13.8327590000 41.7955200000
33        2   1 -0.11999999999999999556 38.0036190000 11.6961640000 41.2382550000
34        2   2 -0.36299999999999998934 32.0279470000 13.0501040000 42.0813720000
35        2   2 -0.36299999999999998934 35.3468380000 13.4568780000 42.7470180000
36        2   3 -0.11999999999999999556 33.3135450000 14.4169550000 43.5715410000
37        2   3  0.12149999999999999689 32.6560340000 14.3569030000 42.2013720000
38        2   3  0.12149999999999999689 34.3429920000 13.3194550000 43.7903980000
39        2   4  0.64670000000000005258 31.6609540000 12.6666080000 40.8441770000
40        2   4  0.64670000000000005258 36.1751700000 12.4107510000 42.5622730000
41        2   3  0.08999999999999999667 31.0070180000 11.2723700000 40.9267870000
42        2   3  0.08999999999999999667 37.1662380000 12.7513200000 41.4313410000
43        2   5  0.05999999999999999778 33.7873510000 15.4004830000 43.6786070000
44        2   5  0.05999999999999999778 32.5510110000 14.3290200000 44.3556680000
45        2   5  0.02999999999999999889 33.3970700000 14.4687110000 41.4064360000
46        2   5  0.02999999999999999889 31.8840840000 15.1255490000 42.0947480000
47        2   5  0.02999999999999999889 34.8350910000 13.4220370000 44.7623570000
48        2   5  0.02999999999999999889 33.8837190000 12.3305060000 43.7139650000
49        2   5  0.14999999999999999445 31.6999170000 10.5391830000 41.3486930000
50        2   5  0.14999999999999999445 36.6376390000 12.9710560000 40.5001450000
51        3   1 -0.23260000000000000120 31.0505390000 25.4316410000 19.6686490000
52        3   1 -0.23260000000000000120 33.2319560000 25.4748900000 19.4966580000
53        3   1 -0.23260000000000000120 36.7669500000 29.0994970000 21.7792810000
54        3   1 -0.23260000000000000120 36.1030030000 27.0721090000 21.2884330000
55        3   1 -0.11999999999999999556 31.2958370000 24.3258180000 22.2368050000
56        3   1 -0.11999999999999999556 32.3029190000 23.1835690000 20.6357720000
57        3   1 -0.11999999999999999556 36.9075860000 29.6940740000 19.0406620000
58        3   1 -0.11999999999999999556 38.1103110000 27.9511000000 19.6728370000
59        3   2 -0.36299999999999998934 32.2368440000 26.6731440000 21.1295040000
60        3   2 -0.36299999999999998934 34.8357030000 28.8261290000 20.6455810000
61        3   3 -0.11999999999999999556 32.5481560000 29.0412480000 21.3213930000
62        3   3  0.12149999999999999689 32.1033730000 27.9210790000 20.3936640000
63        3   3  0.12149999999999999689 33.9760150000 28.8764500000 21.8176050000
64        3   4  0.64670000000000005258 32.1973640000 25.5377530000 20.4071940000
65        3   4  0.64670000000000005258 36.0910250000 28.3754160000 20.8344420000
66        3   3  0.08999999999999999667 32.3399550000 24.3339850000 21.3605910000
67        3   3  0.08999999999999999667 36.8420840000 28.4087040000 19.4883310000
68        3   5  0.05999999999999999778 32.4475510000 29.9905380000 20.7810160000
69        3   5  0.05999999999999999778 31.8873050000 29.0859400000 22.1962210000
70        3   5  0.02999999999999999889 32.7343260000 27.8769170000 19.5028740000
71        3   5  0.02999999999999999889 31.0565710000 28.0402280000 20.0968460000
72        3   5  0.02999999999999999889 34.2830590000 29.7237810000 22.4382040000
73        3   5  0.02999999999999999889 34.0898620000 27.9474870000 22.3822810000
74        3   5  0.14999999999999999445 33.2803520000 24.3837910000 21.9163320000
75        3   5  0.14999999999999999445 36.3370730000 27.7894220000 18.7424900000
76        4   1 -0.23260000000000000120 59.0393960000 41.7940290000 17.0289110000
77        4   1 -0.23260000000000000120 58.5949980000 39.6675030000 16.7635160000
78        4   1 -0.23260000000000000120 57.4715650000 35.8976440000 20.6840240000
79        4   1 -0.23260000000000000120 57.0820820000 36.8996450000 18.7771000000
80        4   1 -0.11999999999999999556 56.3056090000 42.2949360000 17.4212600000
81        4   1 -0.11999999999999999556 56.7997370000 41.2900610000 15.5164450000
82        4   1 -0.11999999999999999556 59.9916300000 35.1118890000 19.7326070000
83        4   1 -0.11999999999999999556 58.2881730000 34.4775570000 18.4756220000
84        4   2 -0.36299999999999998934 58.0982650000 40.6542280000 18.7312250000
85        4   2 -0.36299999999999998934 58.8177400000 37.5911580000 20.0440650000
86        4   3 -0.11999999999999999556 58.9989530000 39.8554470000 20.8030270000
87        4   3  0.12149999999999999689 59.3499950000 40.3597380000 19.4117140000
88        4   3  0.12149999999999999689 58.1096490000 38.6221500000 20.7862880000
89        4   4  0.64670000000000005258 58.1586020000 40.8134560000 17.3957820000
90        4   4  0.64670000000000005258 58.0930000000 36.5296540000 19.6408210000
91        4   3  0.08999999999999999667 56.7452750000 41.1302310000 16.8661410000
92        4   3  0.08999999999999999667 59.0162360000 35.5506480000 18.8882300000
93        4   5  0.05999999999999999778 59.9348100000 39.6342010000 21.3307630000
94        4   5  0.05999999999999999778 58.4792090000 40.6416920000 21.3649240000
95        4   5  0.02999999999999999889 59.8915680000 39.5989290000 18.8447690000
96        4   5  0.02999999999999999889 59.9456180000 41.2769090000 19.4577920000
97        4   5  0.02999999999999999889 57.9196220000 38.2534770000 21.7988890000
98        4   5  0.02999999999999999889 57.1597910000 38.8307120000 20.2872240000
99        4   5  0.14999999999999999445 56.0463680000 40.3252020000 17.1093120000
100       4   5  0.14999999999999999445 59.4757300000 36.0330910000 18.0216640000
101       5   1 -0.23260000000000000120 25.5978070000 19.3382890000 25.7775700000
102       5   1 -0.23260000000000000120 24.2414130000 18.7069560000 24.1801820000
103       5   1 -0.23260000000000000120 22.8273980000 13.5310410000 22.7467300000
104       5   1 -0.23260000000000000120 22.3606470000 15.6148790000 23.2282090000
105       5   1 -0.11999999999999999556 23.5765140000 18.8431350000 27.6610860000
106       5   1 -0.11999999999999999556 23.0218770000 20.2572260000 26.0564120000
107       5   1 -0.11999999999999999556 24.3821700000 14.4018780000 20.5793220000
108       5   1 -0.11999999999999999556 22.2859470000 15.1014770000 20.5555890000
109       5   2 -0.36299999999999998934 24.8044680000 17.2280210000 25.7888990000
110       5   2 -0.36299999999999998934 24.5115560000 14.9320960000 23.2855970000
111       5   3 -0.11999999999999999556 25.8438840000 15.1334140000 25.2655560000
112       5   3  0.12149999999999999689 25.9529500000 16.6428810000 25.1142030000
113       5   3  0.12149999999999999689 24.5549700000 14.5656580000 24.6923920000
114       5   4  0.64670000000000005258 24.5345830000 18.5182010000 25.5150350000
115       5   4  0.64670000000000005258 23.3238800000 14.8039820000 22.6629760000
116       5   3  0.08999999999999999667 23.3007030000 18.9544860000 26.3308490000
117       5   3  0.08999999999999999667 23.4840930000 15.2258970000 21.1886860000
118       5   5  0.05999999999999999778 26.7076200000 14.6781710000 24.7655590000
119       5   5  0.05999999999999999778 25.8931780000 14.8601840000 26.3271400000
120       5   5  0.02999999999999999889 25.9316640000 16.9331740000 24.0611900000
121       5   5  0.02999999999999999889 26.8648470000 17.0264220000 25.5826400000
122       5   5  0.02999999999999999889 24.5310960000 13.4743210000 24.7685660000
123       5   5  0.02999999999999999889 23.6822100000 14.9880950000 25.1970010000
124       5   5  0.14999999999999999445 22.4317030000 18.3372000000 26.0869830000
125       5   5  0.14999999999999999445 23.8298560000 16.2600460000 21.1124740000
126       6   1 -0.23260000000000000120 25.9078670000 52.9717190000 17.0936690000
127       6   1 -0.23260000000000000120 27.7052360000 52.7656130000 15.8619960000
128       6   1 -0.23260000000000000120 33.0062420000 53.2403630000 17.4489010000
129       6   1 -0.23260000000000000120 31.3684650000 52.2285600000 16.4067870000
130       6   1 -0.11999999999999999556 26.3435380000 50.3971210000 18.1232680000
131       6   1 -0.11999999999999999556 26.1945240000 50.5017480000 15.9212010000
132       6   1 -0.11999999999999999556 32.6075430000 55.5017460000 15.8362900000
133       6   1 -0.11999999999999999556 32.9898530000 53.6289770000 14.7269080000
134       6   2 -0.36299999999999998934 27.8994360000 52.6775850000 18.1085010000
135       6   2 -0.36299999999999998934 30.9341020000 54.1269610000 17.5484090000
136       6   3 -0.11999999999999999556 29.3133180000 54.1935360000 19.3103660000
137       6   3  0.12149999999999999689 28.1532520000 54.0926020000 18.3319240000
138       6   3  0.12149999999999999689 30.5763670000 53.5072010000 18.8145670000
139       6   4  0.64670000000000005258 27.1311920000 52.3606310000 17.0493760000
140       6   4  0.64670000000000005258 31.8312220000 53.4723060000 16.7860130000
141       6   3  0.08999999999999999667 26.9684100000 50.8281600000 16.9911280000
142       6   3  0.08999999999999999667 32.0863770000 54.2877070000 15.5025700000
143       6   5  0.05999999999999999778 29.5127690000 55.2566330000 19.4929180000
144       6   5  0.05999999999999999778 29.0335550000 53.7391480000 20.2691730000
145       6   5  0.02999999999999999889 28.4036030000 54.5630490000 17.3782140000
146       6   5  0.02999999999999999889 27.2458710000 54.5491390000 18.7397570000
147       6   5  0.02999999999999999889 31.4057760000 53.6433910000 19.5152270000
148       6   5  0.02999999999999999889 30.4044570000 52.4400320000 18.6521140000
149       6   5  0.14999999999999999445 27.9398700000 50.3342470000 16.9017370000
150       6   5  0.14999999999999999445 31.1606400000 54.4319910000 14.9395260000
151       7   1 -0.23260000000000000120 59.9999990000  6.9164700000 41.6514500000
152       7   1 -0.23260000000000000120 59.6867350000  6.1769530000 39.6155190000
153       7   1 -0.23260000000000000120 55.2867690000  3.4421700000 37.6141240000
154       7   1 -0.23260000000000000120 56.8121000000  5.0096940000 37.5230440000
155       7   1 -0.11999999999999999556 58.2876610000  9.0733610000 41.1090870000
156       7   1 -0.11999999999999999556 60.0000000000  8.8788880000 39.7262170000
157       7   1 -0.11999999999999999556 57.3121560000  1.5002280000 37.6131910000
158       7   1 -0.11999999999999999556 57.3659610000  2.8952480000 35.8999550000
159       7   2 -0.36299999999999998934 57.9179540000  6.3394030000 41.0073770000
160       7   2 -0.36299999999999998934 56.7751230000  3.6184320000 39.3003790000
161       7   3 -0.11999999999999999556 56.5555610000  4.4412220000 41.5388330000
162       7   3  0.12149999999999999689 57.9747340000  4.9882270000 41.5437680000
163       7   3  0.12149999999999999689 55.9232020000  4.4291870000 40.1560310000
164       7   4  0.64670000000000005258 59.0873510000  6.8910830000 40.6324580000
165       7   4  0.64670000000000005258 56.5771400000  3.7260070000 37.9722700000
166       7   3  0.08999999999999999667 58.8217470000  8.3170830000 40.1086880000
167       7   3  0.08999999999999999667 57.5595190000  2.7880170000 37.2426690000
168       7   5  0.05999999999999999778 56.5820270000  3.4231970000 41.9465190000
169       7   5  0.05999999999999999778 55.9201050000  5.0460410000 42.1979480000
170       7   5  0.02999999999999999889 58.6295920000  4.3831210000 40.9124470000
171       7   5  0.02999999999999999889 58.3819420000  5.0331860000 42.5587820000
172       7   5  0.02999999999999999889 54.9249350000  3.9815430000 40.1776720000
173       7   5  0.02999999999999999889 55.8635670000  5.4397040000 39.7436080000
174       7   5  0.14999999999999999445 58.1338070000  8.3003700000 39.2589030000
175       7   5  0.14999999999999999445 58.5952460000  3.0424960000 37.4821160000
176       8   1 -0.23260000000000000120 10.2029140000 28.8078500000 35.5500370000
177       8   1 -0.23260000000000000120  8.3340680000 29.3130260000 36.5709420000
178       8   1 -0.23260000000000000120  7.6203540000 30.6972280000 41.9018820000
179       8   1 -0.23260000000000000120  7.3026690000 30.9863830000 39.7553670000
180       8   1 -0.11999999999999999556 10.8555270000 31.5355470000 35.4395830000
181       8   1 -0.11999999999999999556  8.9156000000 31.0087880000 34.5222710000
182       8   1 -0.11999999999999999556  6.4086860000 28.1729240000 41.7199970000
183       8   1 -0.11999999999999999556  5.1641100000 29.8515350000 41.0006560000
184       8   2 -0.36299999999999998934 10.2965800000 29.8451860000 37.5495140000
185       8   2 -0.36299999999999998934  8.5990530000 29.2740600000 40.4505160000
186       8   3 -0.11999999999999999556 10.8725270000 29.0444360000 39.7332570000
187       8   3  0.12149999999999999689 10.4540190000 28.6284580000 38.3314350000
188       8   3  0.12149999999999999689  9.8736660000 29.9730490000 40.4056560000
189       8   4  0.64670000000000005258  9.6346740000 29.7329780000 36.3825970000
190       8   4  0.64670000000000005258  7.5090830000 30.0190950000 40.7179710000
191       8   3  0.08999999999999999667  9.5854140000 31.1156460000 35.7013050000
192       8   3  0.08999999999999999667  6.2689420000 29.1031250000 40.7340600000
193       8   5  0.05999999999999999778 11.0005930000 28.1354470000 40.3337740000
194       8   5  0.05999999999999999778 11.8419930000 29.5571180000 39.6966890000
195       8   5  0.02999999999999999889  9.5019430000 28.0929530000 38.3499580000
196       8   5  0.02999999999999999889 11.2171390000 28.0047010000 37.8553390000
197       8   5  0.02999999999999999889 10.1765280000 30.2104670000 41.4300080000
198       8   5  0.02999999999999999889  9.7524170000 30.8974460000 39.8350580000
199       8   5  0.14999999999999999445  9.0844340000 31.8489520000 36.3392360000
200       8   5  0.14999999999999999445  6.1425470000 28.5978780000 39.7730310000
201       9   1 -0.23260000000000000120  6.1916610000 39.0794760000 33.6486660000
202       9   1 -0.23260000000000000120  6.5969090000 38.3885310000 35.6854290000
203       9   1 -0.23260000000000000120  6.3477490000 33.1976850000 37.6443470000
204       9   1 -0.23260000000000000120  7.3247440000 35.1409040000 37.3964650000
205       9   1 -0.11999999999999999556  8.7099570000 38.1325150000 32.8487390000
206       9   1 -0.11999999999999999556  8.7510430000 39.5771140000 34.5201740000
207       9   1 -0.11999999999999999556  4.1845500000 34.4688960000 38.9005010000
208       9   1 -0.11999999999999999556  6.1510150000 34.8473150000 39.8353640000
209       9   2 -0.36299999999999998934  6.5390320000 36.8809620000 34.0072950000
210       9   2 -0.36299999999999998934  5.3272090000 34.7844020000 36.4071940000
211       9   3 -0.11999999999999999556  5.0347790000 35.0161010000 34.0414660000
212       9   3  0.12149999999999999689  5.1306870000 36.5322480000 34.1148990000
213       9   3  0.12149999999999999689  5.8326670000 34.3122560000 35.1278100000
214       9   4  0.64670000000000005258  6.8804170000 38.1347380000 34.3592990000
215       9   4  0.64670000000000005258  6.0891630000 34.5329640000 37.4892520000
216       9   3  0.08999999999999999667  8.3998400000 38.3122500000 34.1638520000
217       9   3  0.08999999999999999667  5.3836710000 35.0958010000 38.7393340000
218       9   5  0.05999999999999999778  3.9762160000 34.7382700000 34.1158730000
219       9   5  0.05999999999999999778  5.4021180000 34.6655210000 33.0687380000
220       9   5  0.02999999999999999889  4.7451450000 36.9031030000 35.0674650000
221       9   5  0.02999999999999999889  4.5902200000 37.0070780000 33.2899600000
222       9   5  0.02999999999999999889  5.7002780000 33.2270740000 35.0804550000
223       9   5  0.02999999999999999889  6.8956110000 34.5560320000 35.0535400000
224       9   5  0.14999999999999999445  8.9592010000 37.5947510000 34.7704700000
225       9   5  0.14999999999999999445  5.2210890000 36.1726820000 38.6459540000
226      10   1 -0.23260000000000000120 34.5912510000 22.1915270000  0.4380500000
227      10   1 -0.23260000000000000120 33.5074870000 20.3411660000  0.0002700000
228      10   1 -0.23260000000000000120 33.0238900000 15.8274350000  3.1997530000
229      10   1 -0.23260000000000000120 32.2085070000 17.3951910000  1.9077190000
230      10   1 -0.11999999999999999556 32.4898330000 23.0013430000  2.1133640000
231      10   1 -0.11999999999999999556 31.8928350000 22.5325810000  0.0382470000
232      10   1 -0.11999999999999999556 34.6385830000 14.9490330000  1.0797270000
233      10   1 -0.11999999999999999556 32.4745350000 15.0034160000  0.6346520000
234      10   2 -0.36299999999999998934 34.1219740000 20.7748080000  2.1278530000
235      10   2 -0.36299999999999998934 34.4205610000 17.3863680000  2.3578730000
236      10   3 -0.11999999999999999556 35.5066080000 19.2651750000  3.3710130000
237      10   3  0.12149999999999999689 35.4053110000 20.0901720000  2.0972740000
238      10   3  0.12149999999999999689 34.3788490000 18.2565220000  3.5224870000
239      10   4  0.64670000000000005258 33.6923250000 21.3067650000  0.9681850000
240      10   4  0.64670000000000005258 33.3321920000 16.6256230000  2.1312330000
241      10   3  0.08999999999999999667 32.3330840000 21.9948980000  1.2075500000
242      10   3  0.08999999999999999667 33.5727210000 15.7717700000  0.8701660000
243      10   5  0.05999999999999999778 36.4732790000 18.7467300000  3.3644630000
244      10   5  0.05999999999999999778 35.4909140000 19.9266170000  4.2463950000
245      10   5  0.02999999999999999889 35.4451930000 19.4505380000  1.2124940000
246      10   5  0.02999999999999999889 36.1996730000 20.8413100000  2.0436680000
247      10   5  0.02999999999999999889 34.5094680000 17.6436780000  4.4195660000
248      10   5  0.02999999999999999889 33.4077010000 18.7569310000  3.5579100000
249      10   5  0.14999999999999999445 31.5934090000 21.2815480000  1.5812970000
250      10   5  0.14999999999999999445 33.7673290000 16.4041540000  0.0000830000
251      11   1 -0.23260000000000000120 46.1444500000 38.8819820000 24.3122750000
252      11   1 -0.23260000000000000120 44.3762120000 39.2348200000 23.0717620000
253      11   1 -0.23260000000000000120 39.4015680000 41.1157600000 24.6715480000
254      11   1 -0.23260000000000000120 41.1471770000 41.1056590000 23.3506360000
255      11   1 -0.11999999999999999556 46.6502020000 41.6427590000 24.3398820000
256      11   1 -0.11999999999999999556 46.5143200000 40.7454750000 22.3252680000
257      11   1 -0.11999999999999999556 38.8940310000 38.4423790000 23.9868780000
258      11   1 -0.11999999999999999556 38.9943960000 39.8342050000 22.2731390000
259      11   2 -0.36299999999999998934 44.4691990000 40.1477170000 25.1333690000
260      11   2 -0.36299999999999998934 41.0915110000 39.6851530000 25.1041920000
261      11   3 -0.11999999999999999556 42.7953510000 39.6954370000 26.7872520000
262      11   3  0.12149999999999999689 43.8131720000 39.0645180000 25.8495570000
263      11   3  0.12149999999999999689 41.7625780000 40.5463210000 26.0650730000
264      11   4  0.64670000000000005258 45.1757010000 39.8085940000 24.0387220000
265      11   4  0.64670000000000005258 40.3646460000 40.2956190000 24.1483450000
266      11   3  0.08999999999999999667 45.8007400000 41.0818590000 23.4333470000
267      11   3  0.08999999999999999667 39.7274570000 39.2226090000 23.2428900000
268      11   5  0.05999999999999999778 42.2958420000 38.8895770000 27.3389410000
269      11   5  0.05999999999999999778 43.3072310000 40.3315050000 27.5203550000
270      11   5  0.02999999999999999889 43.3246040000 38.4063530000 25.1272850000
271      11   5  0.02999999999999999889 44.5722330000 38.5030830000 26.4033720000
272      11   5  0.02999999999999999889 41.0150260000 40.9415050000 26.7596130000
273      11   5  0.02999999999999999889 42.2395930000 41.3717700000 25.5303930000
274      11   5  0.14999999999999999445 45.0281330000 41.8066750000 23.1624310000
275      11   5  0.14999999999999999445 40.4936890000 38.5962600000 22.7787780000
276      12   1 -0.23260000000000000120 24.3218370000 31.6451140000 21.9788550000
277      12   1 -0.23260000000000000120 25.3064430000 32.5074200000 20.2247140000
278      12   1 -0.23260000000000000120 29.6568130000 30.4982020000 17.4172860000
279      12   1 -0.23260000000000000120 27.6481310000 31.3595980000 17.5407840000
280      12   1 -0.11999999999999999556 23.0198900000 29.7979880000 20.3140730000
281      12   1 -0.11999999999999999556 22.6851580000 31.9174890000 19.7868920000
282      12   1 -0.11999999999999999556 30.6927040000 32.7874960000 18.6660440000
283      12   1 -0.11999999999999999556 29.5404380000 33.1799970000 16.8214910000
284      12   2 -0.36299999999999998934 25.6910100000 30.3457990000 20.7460150000
285      12   2 -0.36299999999999998934 28.7848190000 30.9516480000 19.4479840000
286      12   3 -0.11999999999999999556 27.9040470000 29.5244530000 21.1577270000
287      12   3  0.12149999999999999689 26.8683600000 30.5575710000 21.5740340000
288      12   3  0.12149999999999999689 28.2770300000 29.6097470000 19.6860700000
289      12   4  0.64670000000000005258 24.7788380000 31.3357390000 20.7269160000
290      12   4  0.64670000000000005258 28.8801100000 31.3437270000 18.1627460000
291      12   3  0.08999999999999999667 23.6093010000 30.9197260000 19.8117800000
292      12   3  0.08999999999999999667 29.4451560000 32.7775780000 18.1179570000
293      12   5  0.05999999999999999778 28.7968790000 29.6686520000 21.7784850000
294      12   5  0.05999999999999999778 27.5233220000 28.5142000000 21.3538980000
295      12   5  0.02999999999999999889 27.2395760000 31.5719160000 21.4101410000
296      12   5  0.02999999999999999889 26.5825180000 30.4361000000 22.6236210000
297      12   5  0.02999999999999999889 29.0613040000 28.8905920000 19.4308860000
298      12   5  0.02999999999999999889 27.4039530000 29.4418870000 19.0501830000
299      12   5  0.14999999999999999445 23.9589620000 30.7221710000 18.7947330000
300      12   5  0.14999999999999999445 28.8014840000 33.4696820000 18.6670500000
301      13   1 -0.23260000000000000120 49.9667590000 12.3867600000 31.7670440000
302      13   1 -0.23260000000000000120 48.5416700000 13.5525610000 32.9502870000
303      13   1 -0.23260000000000000120 49.5998610000 17.8394320000 36.3188620000
304      13   1 -0.23260000000000000120 48.4805360000 16.8499990000 34.7188010000
305      13   1 -0.11999999999999999556 50.0792170000 14.4696010000 29.8888640000
306      13   1 -0.11999999999999999556 48.0526520000 13.6784000000 30.2752420000
307      13   1 -0.11999999999999999556 48.8351420000 15.7992800000 38.0870010000
308      13   1 -0.11999999999999999556 47.1577860000 16.8448620000 37.0983730000
309      13   2 -0.36299999999999998934 50.6103450000 14.3818550000 32.5965850000
310      13   2 -0.36299999999999998934 50.2021160000 15.7585680000 35.6887690000
311      13   3 -0.11999999999999999556 52.0636720000 14.9571120000 34.4127810000
312      13   3  0.12149999999999999689 51.2380020000 13.8406190000 33.7922960000
313      13   3  0.12149999999999999689 51.2404400000 16.1862290000 34.7645260000
314      13   4  0.64670000000000005258 49.5972530000 13.6688850000 32.0695920000
315      13   4  0.64670000000000005258 49.1780520000 16.6113310000 35.8855780000
316      13   3  0.08999999999999999667 49.0782790000 14.3934190000 30.8109920000
317      13   3  0.08999999999999999667 48.1963420000 15.9885780000 36.8983150000
318      13   5  0.05999999999999999778 52.5481120000 14.5613900000 35.3138940000
319      13   5  0.05999999999999999778 52.8556280000 15.2656370000 33.7187610000