Generated by pymatgen.io.lammps.data.LammpsData

17852  atoms
17223  bonds
31058  angles
32397  dihedrals

   15  atom types
   14  bond types
   22  angle types
   20  dihedral types

-0.2500000000 60.2500000000  xlo xhi
-0.2500000000 60.2500000000  ylo yhi
-0.2500000000 60.2500000000  zlo zhi

Masses

1   15.99940
2   12.01070
3    1.00794
4   14.01000
5   32.06000
6   16.00000
7   12.01000
8   19.00000
9   16.00000
10  12.01000
11  12.01000
12   1.00800
13  32.06000
14  32.06000
15   6.94100

Pair Coeffs

1     0.1400  2.900000
2     0.0660  3.500000
3     0.0300  2.500000
4       0.17  3.249999
5       0.25  3.549340
6       0.21  2.959566
7      0.066  3.499450
8      0.053  2.948875
9       0.14  2.900000
10     0.066  3.500000
11     0.066  3.500000
12      0.03  2.500000
13  0.344001  3.590322
14  0.344001  3.590322
15  0.165057  1.506000

Bond Coeffs

1   320.00  1.410
2   268.00  1.529
3   340.00  1.090
4   441.80  1.323
5   235.40  1.818
6   637.10  1.442
7   372.00  1.570
8   320.00  1.410
9   320.00  1.380
10  268.00  1.529
11  340.00  1.090
12  340.00  1.090
13  157.87  2.133
14  154.36  2.117


Angle Coeffs

1    60.00  109.50
2    50.00  109.50
3    35.00  109.50
4    37.50  110.70
5    33.00  107.80
6    93.30  107.10
7    82.90  111.80
8   104.00  102.60
9   115.80  118.50
10   94.30  113.60
11   97.50  100.20
12   80.20  125.60
13   60.00  109.50
14   50.00  109.50
15   35.00  109.50
16   37.50  110.70
17   33.00  107.80
18   92.60  111.55
19   35.00  109.50
20   33.00  109.50
21   73.56  112.74
22   73.56  112.74


Dihedral Coeffs

1 3 0.062500000 1 0.000000000 -0.011000000 2 180.000000000 0.280500000 3 0.000000000
2 1 0.370500000 3 0.000000000
3 3 1.119000000 1 0.000000000 -1.163500000 2 180.000000000 -0.341500000 3 0.000000000
4 1 0.234000000 3 0.000000000
5 1 0.150000000 3 0.000000000
6 1 0.173400000 3 0.000000000
7 1 0.158000000 3 0.000000000
8 1 -0.001800000 3 0.000000000
9 3 3.916460000 1 0.000000000 -1.245000000 2 180.000000000 -0.381800000 3 0.000000000
10 3 0.062500000 1 0.000000000 -0.011000000 2 180.000000000 0.280500000 3 0.000000000
11 3 0.062500000 1 0.000000000 -0.011000000 2 180.000000000 0.280500000 3 0.000000000
12 1 0.370500000 3 0.000000000
13 1 0.370500000 3 0.000000000
14 3 -0.533500000 1 0.000000000 -0.783500000 2 180.000000000 0.337500000 3 0.000000000
15 1 0.370500000 3 0.000000000
16 3 1.119000000 1 0.000000000 -1.163500000 2 180.000000000 -0.341500000 3 0.000000000
17 1 0.234000000 3 0.000000000
18 1 0.150000000 3 0.000000000
19 4 5.431700000 1 0.000000000 -3.590000000 2 180.000000000 1.055600000 3 0.000000000 0.058320000 4 180.000000000
20 4 5.431700000 1 0.000000000 -3.590000000 2 180.000000000 1.055600000 3 0.000000000 0.058320000 4 180.000000000


Atoms

1         1   1 -0.40000000000000002220 58.2537450000  5.4454600000 31.7495410000
2         1   1 -0.40000000000000002220 58.2214780000  8.4511370000 33.7269240000
3         1   1 -0.40000000000000002220 57.1483320000  2.7676810000 29.6164320000
4         1   2  0.14000000000000001332 57.6905780000  6.6082830000 32.3349630000
5         1   2  0.14000000000000001332 57.3317080000  4.7096880000 30.9619520000
6         1   2  0.14000000000000001332 58.7847020000  7.2893000000 33.1425140000
7         1   2  0.14000000000000001332 58.0694940000  3.5020790000 30.4034330000
8         1   2  0.14000000000000001332 59.1429300000  9.1917040000 34.5177790000
9         1   2  0.14000000000000001332 57.7084410000  1.6006680000 29.0283460000
10        1   2 -0.17999999999999999334 58.4222850000 10.4041270000 35.0854660000
11        1   2 -0.17999999999999999334 56.6280320000  0.9053010000 28.2152320000
12        1   3  0.02999999999999999889 57.3161750000  7.2962050000 31.5597980000
13        1   3  0.02999999999999999889 56.8471670000  6.3464940000 32.9936270000
14        1   3  0.02999999999999999889 56.4753750000  4.3772230000 31.5686640000
15        1   3  0.02999999999999999889 56.9447040000  5.3250290000 30.1337070000
16        1   3  0.02999999999999999889 59.1594820000  6.6004590000 33.9175650000
17        1   3  0.02999999999999999889 59.6284340000  7.5491840000 32.4827230000
18        1   3  0.02999999999999999889 58.9271360000  3.8359850000 29.7982070000
19        1   3  0.02999999999999999889 58.4577500000  2.8871930000 31.2321510000
20        1   3  0.02999999999999999889 59.5333550000  8.5546810000 35.3303970000
21        1   3  0.02999999999999999889 60.0010990000  9.5014550000 33.8985100000
22        1   3  0.02999999999999999889 58.5617940000  1.8797670000 28.3858530000
23        1   3  0.02999999999999999889 58.0932330000  0.9326050000 29.8181640000
24        1   3  0.05999999999999999778 57.5750380000 10.0913200000 35.7041360000
25        1   3  0.05999999999999999778 59.1063230000 10.9991260000 35.7024510000
26        1   3  0.05999999999999999778 58.0428260000 11.0365980000 34.2756790000
27        1   3  0.05999999999999999778 56.2542630000  1.5697970000 27.4292560000
28        1   3  0.05999999999999999778 57.0280600000 -0.0005840000 27.7463410000
29        1   3  0.05999999999999999778 55.7869100000  0.6245870000 28.8586120000
30        2   1 -0.40000000000000002220 19.2989250000 55.1725870000 50.0681000000
31        2   1 -0.40000000000000002220 21.8396260000 57.7116890000 50.2754050000
32        2   1 -0.40000000000000002220 16.1422970000 53.4848050000 50.4282190000
33        2   2  0.14000000000000001332 19.8488190000 56.4337270000 50.4133190000
34        2   2  0.14000000000000001332 17.9454840000 55.0218890000 50.4647060000
35        2   2  0.14000000000000001332 21.2908830000 56.4513320000 49.9304390000
36        2   2  0.14000000000000001332 17.4943450000 53.6347650000 50.0323300000
37        2   2  0.14000000000000001332 23.1969220000 57.8666950000 49.8795670000
38        2   2  0.14000000000000001332 15.5872750000 52.2216460000 50.0849050000
39        2   2 -0.17999999999999999334 23.6659540000 59.2491630000 50.3042520000
40        2   2 -0.17999999999999999334 14.1433250000 52.1850770000 50.5599240000
41        2   3  0.02999999999999999889 19.2856310000 57.2516730000 49.9357440000
42        2   3  0.02999999999999999889 19.8172310000 56.5901090000 51.5033920000
43        2   3  0.02999999999999999889 17.8426270000 55.1255400000 51.5558600000
44        2   3  0.02999999999999999889 17.3096750000 55.7853410000 49.9879540000
45        2   3  0.02999999999999999889 21.8538700000 55.6324070000 50.4080070000
46        2   3  0.02999999999999999889 21.3211190000 56.2931870000 48.8401070000
47        2   3  0.02999999999999999889 17.5995440000 53.5316560000 48.9407060000
48        2   3  0.02999999999999999889 18.1313460000 52.8710720000 50.5083600000
49        2   3  0.02999999999999999889 23.8150550000 57.0834230000 50.3517680000
50        2   3  0.02999999999999999889 23.2832730000 57.7429640000 48.7872630000
51        2   3  0.02999999999999999889 15.6426040000 52.0746900000 48.9920880000
52        2   3  0.02999999999999999889 16.1741430000 51.4151940000 50.5575630000
53        2   3  0.05999999999999999778 23.5839300000 59.3648970000 51.3897500000
54        2   3  0.05999999999999999778 24.7121430000 59.4022040000 50.0132720000
55        2   3  0.05999999999999999778 23.0543080000 60.0229570000 49.8279160000
56        2   3  0.05999999999999999778 13.5640930000 52.9828340000 50.0833840000
57        2   3  0.05999999999999999778 13.6843450000 51.2222040000 50.3094810000
58        2   3  0.05999999999999999778 14.0946640000 52.3245780000 51.6454640000
59        3   1 -0.40000000000000002220  8.4636300000 55.0536200000 38.0528940000
60        3   1 -0.40000000000000002220  5.2700970000 54.1411540000 39.4363420000
61        3   1 -0.40000000000000002220 12.0166630000 55.1935300000 37.5061060000
62        3   2  0.14000000000000001332  7.5714300000 54.3742960000 38.9215320000
63        3   2  0.14000000000000001332  9.8252680000 54.7257740000 38.2771020000
64        3   2  0.14000000000000001332  6.1610260000 54.8204240000 38.5683210000
65        3   2  0.14000000000000001332 10.6567180000 55.5216300000 37.2821670000
66        3   2  0.14000000000000001332  3.9035450000 54.4673990000 39.2148350000
67        3   2  0.14000000000000001332 12.9146610000 55.8729510000 36.6380780000
68        3   2 -0.17999999999999999334  3.0560540000 53.6805070000 40.2018130000
69        3   2 -0.17999999999999999334 14.3321490000 55.4388890000 36.9761490000
70        3   3  0.02999999999999999889  7.6589550000 53.2826890000 38.7989460000
71        3   3  0.02999999999999999889  7.7881240000 54.6168970000 39.9741020000
72        3   3  0.02999999999999999889 10.1261130000 54.9811270000 39.3048310000
73        3   3  0.02999999999999999889  9.9987650000 53.6476920000 38.1286340000
74        3   3  0.02999999999999999889  6.0740510000 55.9127500000 38.6904820000
75        3   3  0.02999999999999999889  5.9461530000 54.5785960000 37.5147100000
76        3   3  0.02999999999999999889 10.3534600000 55.2666890000 36.2543630000
77        3   3  0.02999999999999999889 10.4820790000 56.6001780000 37.4299430000
78        3   3  0.02999999999999999889  3.7523760000 55.5525100000 39.3499590000
79        3   3  0.02999999999999999889  3.6248490000 54.2210060000 38.1768010000
80        3   3  0.02999999999999999889 12.6724740000 55.6319860000 35.5882280000
81        3   3  0.02999999999999999889 12.8004220000 56.9636900000 36.7622690000
82        3   3  0.05999999999999999778  3.3323470000 53.9329950000 41.2305680000
83        3   3  0.05999999999999999778  1.9932390000 53.9092320000 40.0578900000
84        3   3  0.05999999999999999778  3.2040480000 52.6046060000 40.0593350000
85        3   3  0.05999999999999999778 14.4419430000 54.3573070000 36.8452210000
86        3   3  0.05999999999999999778 15.0514430000 55.9450540000 36.3227560000
87        3   3  0.05999999999999999778 14.5695200000 55.6863610000 38.0166470000
88        4   1 -0.40000000000000002220 35.1409640000 41.9230330000 42.9325330000
89        4   1 -0.40000000000000002220 33.4243120000 39.1941400000 44.5298520000
90        4   1 -0.40000000000000002220 36.0774280000 45.2681700000 41.9967520000
91        4   2  0.14000000000000001332 34.1884360000 41.3106000000 43.7867290000
92        4   2  0.14000000000000001332 35.0743650000 43.3398280000 42.9405760000
93        4   2  0.14000000000000001332 34.3760860000 39.8054240000 43.6759900000
94        4   2  0.14000000000000001332 36.1439450000 43.8529840000 41.9880750000
95        4   2  0.14000000000000001332 33.4877050000 37.7732540000 44.5244520000
96        4   2  0.14000000000000001332 37.0299930000 45.8862590000 41.1411400000
97        4   2 -0.17999999999999999334 32.4241170000 37.2416570000 45.4719500000
98        4   2 -0.17999999999999999334 36.8580010000 47.3938650000 41.2386920000
99        4   3  0.02999999999999999889 34.3358210000 41.6289140000 44.8313570000
100       4   3  0.02999999999999999889 33.1630880000 41.5827760000 43.4895850000
101       4   3  0.02999999999999999889 34.0828740000 43.6877660000 42.6122090000
102       4   3  0.02999999999999999889 35.2568340000 43.7353750000 43.9528280000
103       4   3  0.02999999999999999889 34.2291740000 39.4874320000 42.6305410000
104       4   3  0.02999999999999999889 35.4026610000 39.5347180000 43.9719800000
105       4   3  0.02999999999999999889 37.1352360000 43.5026090000 42.3165890000
106       4   3  0.02999999999999999889 35.9620300000 43.4561500000 40.9756370000
107       4   3  0.02999999999999999889 33.3208770000 37.3962290000 43.5004410000
108       4   3  0.02999999999999999889 34.4917680000 37.4435660000 44.8391860000
109       4   3  0.02999999999999999889 38.0497800000 45.5893480000 41.4424420000
110       4   3  0.02999999999999999889 36.8780540000 45.5424730000 40.1033970000
111       4   3  0.05999999999999999778 31.4289170000 37.5666030000 45.1519280000
112       4   3  0.05999999999999999778 32.4456100000 36.1454140000 45.4917880000
113       4   3  0.05999999999999999778 32.5977660000 37.6127020000 46.4877920000
114       4   3  0.05999999999999999778 37.0160070000 47.7305240000 42.2686000000
115       4   3  0.05999999999999999778 37.5799250000 47.9022490000 40.5899370000
116       4   3  0.05999999999999999778 35.8468770000 47.6835980000 40.9322490000
117       5   1 -0.40000000000000002220 11.3970150000 23.0216520000 31.8856880000
118       5   1 -0.40000000000000002220 10.6342010000 24.0614660000 35.2445680000
119       5   1 -0.40000000000000002220 12.4973730000 21.0016460000 29.1195740000
120       5   2  0.14000000000000001332 11.3066260000 22.8934350000 33.2954480000
121       5   2  0.14000000000000001332 11.9293090000 21.8710820000 31.2495560000
122       5   2  0.14000000000000001332 10.7245040000 24.1903130000 33.8360700000
123       5   2  0.14000000000000001332 11.9660940000 22.1512820000 29.7546570000
124       5   2  0.14000000000000001332 10.1010460000 25.2133680000 35.8863110000
125       5   2  0.14000000000000001332 12.5905910000 21.1261510000 27.7063170000
126       5   2 -0.17999999999999999334 10.0568670000 24.9516550000 37.3833480000
127       5   2 -0.17999999999999999334 13.1710120000 19.8370150000 27.1466630000
128       5   3  0.02999999999999999889 10.6554440000 22.0485660000 33.5719470000
129       5   3  0.02999999999999999889 12.3000320000 22.7161720000 33.7375290000
130       5   3  0.02999999999999999889 12.9451880000 21.6555340000 31.6148890000
131       5   3  0.02999999999999999889 11.3009860000 20.9875780000 31.4471330000
132       5   3  0.02999999999999999889 11.3759880000 25.0354620000 33.5586600000
133       5   3  0.02999999999999999889  9.7314850000 24.3672260000 33.3918150000
134       5   3  0.02999999999999999889 10.9494160000 22.3686750000 29.3907240000
135       5   3  0.02999999999999999889 12.5937030000 23.0360000000 29.5572170000
136       5   3  0.02999999999999999889 10.7323570000 26.0908620000 35.6626390000
137       5   3  0.02999999999999999889  9.0913730000 25.4238200000 35.4962280000
138       5   3  0.02999999999999999889 11.5898450000 21.3201350000 27.2823070000
139       5   3  0.02999999999999999889 13.2317570000 21.9868740000 27.4489320000
140       5   3  0.05999999999999999778 11.0620830000 24.7492260000 37.7667410000
141       5   3  0.05999999999999999778  9.6494040000 25.8228690000 37.9101900000
142       5   3  0.05999999999999999778  9.4239050000 24.0845930000 37.6009010000
143       5   3  0.05999999999999999778 12.5281090000 18.9873560000 27.3991930000
144       5   3  0.05999999999999999778 13.2557040000 19.8994840000 26.0560520000
145       5   3  0.05999999999999999778 14.1665020000 19.6529000000 27.5653840000
146       6   1 -0.40000000000000002220 57.1837110000 40.0648100000 33.8346250000
147       6   1 -0.40000000000000002220 56.9985990000 37.0730860000 35.8247250000
148       6   1 -0.40000000000000002220 57.7759620000 42.2637950000 31.0496120000
149       6   2  0.14000000000000001332 57.3200820000 38.6807820000 34.1137360000
150       6   2  0.14000000000000001332 57.5800680000 40.4145640000 32.5184250000
151       6   2  0.14000000000000001332 56.8623620000 38.4560880000 35.5465780000
152       6   2  0.14000000000000001332 57.3804160000 41.9149150000 32.3645550000
153       6   2  0.14000000000000001332 56.6023320000 36.7182790000 37.1438350000
154       6   2  0.14000000000000001332 57.6417320000 43.6504830000 30.7657740000
155       6   2 -0.17999999999999999334 56.7954490000 35.2201280000 37.3165050000
156       6   2 -0.17999999999999999334 58.0948640000 43.8951560000 29.3351160000
157       6   3  0.02999999999999999889 56.7035910000 38.0790330000 33.4266180000
158       6   3  0.02999999999999999889 58.3677770000 38.3593910000 34.0007880000
159       6   3  0.02999999999999999889 58.6366430000 40.1581010000 32.3457550000
160       6   3  0.02999999999999999889 56.9724790000 39.8797560000 31.7706130000
161       6   3  0.02999999999999999889 57.4790090000 39.0588250000 36.2336880000
162       6   3  0.02999999999999999889 55.8146890000 38.7794920000 35.6585540000
163       6   3  0.02999999999999999889 56.3233210000 42.1704660000 32.5394380000
164       6   3  0.02999999999999999889 57.9873500000 42.4498360000 33.1136160000
165       6   3  0.02999999999999999889 57.2085070000 37.2764880000 37.8783640000
166       6   3  0.02999999999999999889 55.5477560000 36.9976120000 37.3042580000
167       6   3  0.02999999999999999889 56.5900980000 43.9584990000 30.9003000000
168       6   3  0.02999999999999999889 58.2517930000 44.2372230000 31.4741150000
169       6   3  0.05999999999999999778 57.8447240000 34.9487700000 37.1621890000
170       6   3  0.05999999999999999778 56.4982940000 34.9119130000 38.3261110000
171       6   3  0.05999999999999999778 56.1868880000 34.6704650000 36.5903580000
172       6   3  0.05999999999999999778 57.4825500000 43.3159360000 28.6361230000
173       6   3  0.05999999999999999778 58.0031110000 44.9574860000 29.0830350000
174       6   3  0.05999999999999999778 59.1406770000 43.5942030000 29.2089100000
175       7   1 -0.40000000000000002220 41.1812450000 14.5548230000 27.9353910000
176       7   1 -0.40000000000000002220 39.0094270000 17.2816110000 27.0448780000
177       7   1 -0.40000000000000002220 44.0014230000 12.3212400000 27.9527130000
178       7   2  0.14000000000000001332 40.7702130000 15.7046960000 27.2136710000
179       7   2  0.14000000000000001332 42.4379050000 14.0476870000 27.5165520000
180       7   2  0.14000000000000001332 39.4194040000 16.1325800000 27.7661760000
181       7   2  0.14000000000000001332 42.7459350000 12.8272110000 28.3710370000
182       7   2  0.14000000000000001332 37.7494750000 17.7931550000 27.4617840000
183       7   2  0.14000000000000001332 44.4169640000 11.1679710000 28.6729770000
184       7   2 -0.17999999999999999334 37.4242340000 19.0149870000 26.6174440000
185       7   2 -0.17999999999999999334 45.7680340000 10.7247930000 28.1342950000
186       7   3  0.02999999999999999889 41.4979540000 16.5236190000 27.3322060000
187       7   3  0.02999999999999999889 40.6811550000 15.4816850000 26.1384740000
188       7   3  0.02999999999999999889 42.4114210000 13.7630360000 26.4534380000
189       7   3  0.02999999999999999889 43.2293390000 14.8031870000 27.6479260000
190       7   3  0.02999999999999999889 38.6917260000 15.3127160000 27.6479720000
191       7   3  0.02999999999999999889 39.5095810000 16.3538080000 28.8421280000
192       7   3  0.02999999999999999889 42.7702560000 13.1129290000 29.4345760000
193       7   3  0.02999999999999999889 41.9533920000 12.0719350000 28.2405110000
194       7   3  0.02999999999999999889 36.9732590000 17.0177210000 27.3402620000
195       7   3  0.02999999999999999889 37.7895500000 18.0567040000 28.5317520000
196       7   3  0.02999999999999999889 44.4843670000 11.4047630000 29.7492170000
197       7   3  0.02999999999999999889 43.6681940000 10.3654570000 28.5567890000
198       7   3  0.05999999999999999778 37.3796940000 18.7470430000 25.5569490000
199       7   3  0.05999999999999999778 36.4558660000 19.4356930000 26.9138760000
200       7   3  0.05999999999999999778 38.1933120000 19.7841410000 26.7466210000
201       7   3  0.05999999999999999778 46.5086110000 11.5218680000 28.2577160000
202       7   3  0.05999999999999999778 46.1185790000  9.8356940000 28.6701400000
203       7   3  0.05999999999999999778 45.6940020000 10.4846710000 27.0679530000
204       8   1 -0.40000000000000002220 17.6927330000 18.5568350000 38.8471480000
205       8   1 -0.40000000000000002220 17.0351870000 16.3878030000 36.0528490000
206       8   1 -0.40000000000000002220 17.2461560000 21.0872800000 41.3650860000
207       8   2  0.14000000000000001332 16.9373910000 18.0081620000 37.7792300000
208       8   2  0.14000000000000001332 17.0076240000 19.5782840000 39.5536020000
209       8   2  0.14000000000000001332 17.7905150000 16.9357730000 37.1195400000
210       8   2  0.14000000000000001332 17.9310040000 20.0673700000 40.6593830000
211       8   2  0.14000000000000001332 17.7188790000 15.3632110000 35.3416920000
212       8   2  0.14000000000000001332 18.0000440000 21.6407560000 42.4359750000
213       8   2 -0.17999999999999999334 16.8102470000 14.8616350000 34.2306680000
214       8   2 -0.17999999999999999334 17.1621730000 22.7162780000 43.1091740000
215       8   3  0.02999999999999999889 15.9996880000 17.5632800000 38.1494820000
216       8   3  0.02999999999999999889 16.6777000000 18.7853270000 37.0428270000
217       8   3  0.02999999999999999889 16.7505420000 20.4135410000 38.8841290000
218       8   3  0.02999999999999999889 16.0732310000 19.1927130000 39.9925210000
219       8   3  0.02999999999999999889 18.7289060000 17.3811720000 36.7497980000
220       8   3  0.02999999999999999889 18.0509070000 16.1598280000 37.8576800000
221       8   3  0.02999999999999999889 18.1890190000 19.2303890000 41.3273890000
222       8   3  0.02999999999999999889 18.8663450000 20.4519190000 40.2202230000
223       8   3  0.02999999999999999889 18.6599330000 15.7624390000 34.9250240000
224       8   3  0.02999999999999999889 17.9831420000 14.5437460000 36.0305570000
225       8   3  0.02999999999999999889 18.2657670000 20.8459460000 43.1547060000
226       8   3  0.02999999999999999889 18.9422830000 22.0654750000 42.0486970000
227       8   3  0.05999999999999999778 16.5556830000 15.6772870000 33.5463180000
228       8   3  0.05999999999999999778 17.3083180000 14.0681240000 33.6606960000
229       8   3  0.05999999999999999778 15.8810470000 14.4602230000 34.6492630000
230       8   3  0.05999999999999999778 16.2317740000 22.2886720000 43.4971520000
231       8   3  0.05999999999999999778 17.7153250000 23.1641040000 43.9422310000
232       8   3  0.05999999999999999778 16.9070820000 23.5055500000 42.3934910000
233       9   1 -0.40000000000000002220 52.0211480000 18.3965640000 43.3136950000
234       9   1 -0.40000000000000002220 54.7322740000 20.4894540000 44.4158670000
235       9   1 -0.40000000000000002220 49.2530450000 17.1574690000 41.3785360000
236       9   2  0.14000000000000001332 52.8987020000 19.5104080000 43.2778850000
237       9   2  0.14000000000000001332 51.0681980000 18.3976940000 42.2631270000
238       9   2  0.14000000000000001332 53.8556110000 19.3764620000 44.4523690000
239       9   2  0.14000000000000001332 50.2044440000 17.1562340000 42.4283390000
240       9   2  0.14000000000000001332 55.6893670000 20.4921270000 45.4679750000
241       9   2  0.14000000000000001332 48.3706840000 16.0430790000 41.4110910000
242       9   2 -0.17999999999999999334 56.5627890000 21.7276790000 45.3192730000
243       9   2 -0.17999999999999999334 47.4050800000 16.1592180000 40.2422900000
244       9   3  0.02999999999999999889 53.4673010000 19.5321470000 42.3342130000
245       9   3  0.02999999999999999889 52.3371120000 20.4547740000 43.3585260000
246       9   3  0.02999999999999999889 50.4386580000 19.2998120000 42.3055700000
247       9   3  0.02999999999999999889 51.5672220000 18.3757090000 41.2808340000
248       9   3  0.02999999999999999889 53.2862770000 19.3541010000 45.3963100000
249       9   3  0.02999999999999999889 54.4155750000 18.4306210000 44.3713050000
250       9   3  0.02999999999999999889 50.8356900000 16.2544520000 42.3876210000
251       9   3  0.02999999999999999889 49.7062360000 17.1777010000 43.4116650000
252       9   3  0.02999999999999999889 55.1719140000 20.4958220000 46.4430680000
253       9   3  0.02999999999999999889 56.2988090000 19.5744250000 45.4200340000
254       9   3  0.02999999999999999889 48.9509560000 15.1060540000 41.3464850000
255       9   3  0.02999999999999999889 47.8234010000 16.0281990000 42.3694460000
256       9   3  0.05999999999999999778 55.9540990000 22.6359630000 45.3735190000
257       9   3  0.05999999999999999778 57.3142450000 21.7608800000 46.1172800000
258       9   3  0.05999999999999999778 57.0794060000 21.7161320000 44.3534890000
259       9   3  0.05999999999999999778 47.9524170000 16.1671000000 39.2939360000
260       9   3  0.05999999999999999778 46.7094030000 15.3127440000 40.2375410000
261       9   3  0.05999999999999999778 46.8272650000 17.0871620000 40.3149260000
262      10   1 -0.40000000000000002220 30.6029030000 17.0908440000 48.4642180000
263      10   1 -0.40000000000000002220 29.8244320000 15.7406930000 51.7070960000
264      10   1 -0.40000000000000002220 30.6330590000 19.2850350000 45.6133920000
265      10   2  0.14000000000000001332 29.9791600000 17.0492310000 49.7375000000
266      10   2  0.14000000000000001332 30.2489160000 18.2333770000 47.7019060000
267      10   2  0.14000000000000001332 30.4477520000 15.7815350000 50.4349220000
268      10   2  0.14000000000000001332 30.9865150000 18.1434200000 46.3743350000
269      10   2  0.14000000000000001332 30.1766920000 14.5962470000 52.4746390000
270      10   2  0.14000000000000001332 31.2554010000 19.3303710000 44.3358470000
271      10   2 -0.17999999999999999334 29.4476770000 14.6687240000 53.8068740000
272      10   2 -0.17999999999999999334 30.7987990000 20.5931020000 43.6224070000
273      10   3  0.02999999999999999889 30.2558310000 17.9299350000 50.3392540000
274      10   3  0.02999999999999999889 28.8821770000 17.0371720000 49.6365220000
275      10   3  0.02999999999999999889 29.1628250000 18.2657880000 47.5250020000
276      10   3  0.02999999999999999889 30.5371310000 19.1591230000 48.2256730000
277      10   3  0.02999999999999999889 30.1713100000 14.9006320000 49.8322150000
278      10   3  0.02999999999999999889 31.5453870000 15.7941660000 50.5338390000
279      10   3  0.02999999999999999889 32.0729440000 18.1091210000 46.5527640000
280      10   3  0.02999999999999999889 30.6990600000 17.2165570000 45.8509840000
281      10   3  0.02999999999999999889 29.8974120000 13.6793420000 51.9270390000
282      10   3  0.02999999999999999889 31.2684700000 14.5711850000 52.6272390000
283      10   3  0.02999999999999999889 32.3529390000 19.3246520000 44.4553620000
284      10   3  0.02999999999999999889 30.9809270000 18.4329570000 43.7549010000
285      10   3  0.05999999999999999778 28.3643640000 14.6873320000 53.6503110000
286      10   3  0.05999999999999999778 29.6977610000 13.7984220000 54.4254490000
287      10   3  0.05999999999999999778 29.7331630000 15.5763670000 54.3495040000
288      10   3  0.05999999999999999778 31.0790560000 21.4804830000 44.1994920000
289      10   3  0.05999999999999999778 31.2621720000 20.6594640000 42.6317560000
290      10   3  0.05999999999999999778 29.7100630000 20.5904800000 43.5004540000
291      11   1 -0.40000000000000002220  5.7571150000 55.9546170000  5.8989550000
292      11   1 -0.40000000000000002220  2.6197980000 57.6595630000  5.4567170000
293      11   1 -0.40000000000000002220  8.1484410000 53.3230320000  6.4456830000
294      11   2  0.14000000000000001332  4.3470130000 56.0744340000  5.8025660000
295      11   2  0.14000000000000001332  6.1936550000 54.6255620000  6.1331620000
296      11   2  0.14000000000000001332  4.0287530000 57.5405700000  5.5531920000
297      11   2  0.14000000000000001332  7.7127680000 54.6507870000  6.2122250000
298      11   2  0.14000000000000001332  2.1779440000 58.9909820000  5.2220770000
299      11   2  0.14000000000000001332  9.5613530000 53.1984370000  6.5438860000
300      11   2 -0.17999999999999999334  0.6597740000 58.9855670000  5.1402520000
301      11   2 -0.17999999999999999334  9.8996530000 51.7371390000  6.7931490000
302      11   3  0.02999999999999999889  3.9566170000 55.4619120000  4.9738910000
303      11   3  0.02999999999999999889  3.8605250000 55.7387500000  6.7322750000
304      11   3  0.02999999999999999889  5.7764710000 54.2357990000  7.0744280000
305      11   3  0.02999999999999999889  5.8746470000 53.9581920000  5.3163040000
306      11   3  0.02999999999999999889  4.4200860000 58.1531460000  6.3822120000
307      11   3  0.02999999999999999889  4.5173250000 57.8754850000  4.6237430000
308      11   3  0.02999999999999999889  8.1288760000 55.0427270000  5.2706420000
309      11   3  0.02999999999999999889  8.0318470000 55.3195110000  7.0286800000
310      11   3  0.02999999999999999889  2.5217150000 59.6477830000  6.0400080000
311      11   3  0.02999999999999999889  2.6186330000 59.3705030000  4.2852470000
312      11   3  0.02999999999999999889 10.0327720000 53.5547280000  5.6112940000
313      11   3  0.02999999999999999889  9.9355740000 53.8315320000  7.3668890000
314      11   3  0.05999999999999999778  0.2270440000 58.6137440000  6.0745530000
315      11   3  0.05999999999999999778  0.2847270000 60.0000660000  4.9593270000
316      11   3  0.05999999999999999778  0.3237100000 58.3381990000  4.3230980000
317      11   3  0.05999999999999999778  9.5319920000 51.1143010000  5.9710090000
318      11   3  0.05999999999999999778 10.9844630000 51.6057430000  6.8733470000
319      11   3  0.05999999999999999778  9.4351160000 51.3907240000  7.7228950000
320      12   1 -0.40000000000000002220 48.5703530000 10.2241440000 54.2958360000
321      12   1 -0.40000000000000002220 51.1978800000 10.0564200000 51.8436630000
322      12   1 -0.40000000000000002220 46.6325960000 11.2867730000 57.1345870000
323      12   2  0.14000000000000001332 49.7831570000 10.6021050000 53.6647360000
324      12   2  0.14000000000000001332 48.2584030000 11.0132390000 55.4324200000
325      12   2  0.14000000000000001332 49.9861540000  9.6781060000 52.4739180000
326      12   2  0.14000000000000001332 46.9440870000 10.4980380000 55.9996330000
327      12   2  0.14000000000000001332 51.5144120000  9.2672830000 50.7034720000
328      12   2  0.14000000000000001332 45.4180110000 10.9107540000 57.7708880000
329      12   2 -0.17999999999999999334 52.8270860000  9.7681080000 50.1224160000
330      12   2 -0.17999999999999999334 45.1972540000 11.8250350000 58.9655970000
331      12   3  0.02999999999999999889 49.7377850000 11.6482580000 53.3215180000
332      12   3  0.02999999999999999889 50.6326310000 10.5086940000 54.3599940000