Generated by pymatgen.io.lammps.data.LammpsData

15584  atoms
14298  bonds
23777  angles
20598  dihedrals

   16  atom types
   14  bond types
   20  angle types
   16  dihedral types

-0.2500000000 60.2500000000  xlo xhi
-0.2500000000 60.2500000000  ylo yhi
-0.2500000000 60.2500000000  zlo zhi

Masses

1   14.01000
2   32.06000
3   16.00000
4   12.01000
5   19.00000
6   16.00000
7   12.01000
8   12.01000
9    1.00800
10  32.06000
11  32.06000
12  14.00670
13  12.01070
14  12.01070
15   1.00794
16   6.94100

Pair Coeffs

1       0.17  3.249999
2       0.25  3.549340
3       0.21  2.959566
4      0.066  3.499450
5      0.053  2.948875
6       0.14  2.900000
7      0.066  3.500000
8      0.066  3.500000
9       0.03  2.500000
10  0.344001  3.590322
11  0.344001  3.590322
12    0.1700  3.280000
13    0.0660  3.300000
14    0.0660  3.300000
15    0.0150  2.500000
16  0.165057  1.506000

Bond Coeffs

1   441.80  1.323
2   235.40  1.818
3   637.10  1.442
4   372.00  1.570
5   320.00  1.410
6   320.00  1.380
7   268.00  1.529
8   340.00  1.090
9   340.00  1.090
10  157.87  2.133
11  154.36  2.117
12  650.00  1.157
13  390.00  1.470
14  340.00  1.090


Angle Coeffs

1    93.30  107.10
2    82.90  111.80
3   104.00  102.60
4   115.80  118.50
5    94.30  113.60
6    97.50  100.20
7    80.20  125.60
8    60.00  109.50
9    50.00  109.50
10   35.00  109.50
11   37.50  110.70
12   33.00  107.80
13   92.60  111.55
14   35.00  109.50
15   33.00  109.50
16   73.56  112.74
17   73.56  112.74
18   35.00  108.50
19   33.00  107.80
20  150.00  180.00


Dihedral Coeffs

1 1 0.173400000 3 0.000000000
2 1 0.158000000 3 0.000000000
3 1 -0.001800000 3 0.000000000
4 3 3.916460000 1 0.000000000 -1.245000000 2 180.000000000 -0.381800000 3 0.000000000
5 3 0.062500000 1 0.000000000 -0.011000000 2 180.000000000 0.280500000 3 0.000000000
6 3 0.062500000 1 0.000000000 -0.011000000 2 180.000000000 0.280500000 3 0.000000000
7 1 0.370500000 3 0.000000000
8 1 0.370500000 3 0.000000000
9 3 -0.533500000 1 0.000000000 -0.783500000 2 180.000000000 0.337500000 3 0.000000000
10 1 0.370500000 3 0.000000000
11 3 1.119000000 1 0.000000000 -1.163500000 2 180.000000000 -0.341500000 3 0.000000000
12 1 0.234000000 3 0.000000000
13 1 0.150000000 3 0.000000000
14 4 5.431700000 1 0.000000000 -3.590000000 2 180.000000000 1.055600000 3 0.000000000 0.058320000 4 180.000000000
15 4 5.431700000 1 0.000000000 -3.590000000 2 180.000000000 1.055600000 3 0.000000000 0.058320000 4 180.000000000
16 1 0.000000000 1 0.000000000


Atoms

1         1   1 -0.48387096774193549820 23.1339470000 24.0980980000 58.9624090000
2         1   2  0.74780058651026393157 24.1568920000 23.4067750000 57.9084440000
3         1   3 -0.38856304985337247748 24.2652110000 21.9472630000 58.0472830000
4         1   3 -0.38856304985337247748 24.1783110000 23.9795570000 56.5528670000
5         1   4  0.25659824046920820528 25.7243990000 24.0693910000 58.7246000000
6         1   5 -0.11730205278592376050 25.8484690000 23.6640670000 60.0000010000
7         1   5 -0.11730205278592376050 25.7749700000 25.4122100000 58.6988950000
8         1   5 -0.11730205278592376050 26.7910310000 23.6040480000 58.0384300000
9         1   2  0.74780058651026393157 21.5562540000 24.2567110000 58.7045930000
10        1   3 -0.38856304985337247748 20.8703590000 24.3430350000 60.0000410000
11        1   3 -0.38856304985337247748 20.9929420000 23.4170980000 57.6375480000
12        1   4  0.25659824046920820528 21.3843110000 26.0179520000 58.0361460000
13        1   5 -0.11730205278592376050 21.8918490000 26.9207600000 58.8983550000
14        1   5 -0.11730205278592376050 22.0056720000 26.1709140000 56.8571230000
15        1   5 -0.11730205278592376050 20.0765990000 26.3107460000 57.8582520000
16        2   1 -0.48387096774193549820 41.0834230000 37.6634830000 58.9657810000
17        2   2  0.74780058651026393157 42.1870520000 37.1517420000 57.8909250000
18        2   3 -0.38856304985337247748 42.4820670000 35.7138780000 57.9727360000
19        2   3 -0.38856304985337247748 42.1350350000 37.7759780000 56.5591030000
20        2   4  0.25659824046920820528 43.6561370000 37.9772300000 58.7409900000
21        2   5 -0.11730205278592376050 43.8309280000 37.5408070000 60.0000820000
22        2   5 -0.11730205278592376050 43.5336620000 39.3153720000 58.7684830000
23        2   5 -0.11730205278592376050 44.7739330000 37.6804040000 58.0427770000
24        2   2  0.74780058651026393157 39.4985030000 37.6282570000 58.7059150000
25        2   3 -0.38856304985337247748 38.8068400000 37.5741840000 60.0000440000
26        2   3 -0.38856304985337247748 39.0481050000 36.7663430000 57.6035990000
27        2   4  0.25659824046920820528 39.1017490000 39.3779980000 58.1064600000
28        2   5 -0.11730205278592376050 39.4887700000 40.3035140000 59.0062920000
29        2   5 -0.11730205278592376050 39.6986190000 39.6562670000 56.9377450000
30        2   5 -0.11730205278592376050 37.7672970000 39.5072350000 57.9331950000
31        3   1 -0.48387096774193549820 54.7365570000 25.8791810000  4.1199930000
32        3   2  0.74780058651026393157 55.6978610000 25.2994930000  2.9473700000
33        3   3 -0.38856304985337247748 56.2633460000 23.9736110000  3.2362380000
34        3   3 -0.38856304985337247748 55.2863460000 25.5935680000  1.5652330000
35        3   4  0.25659824046920820528 57.1204660000 26.4944990000  3.2796460000
36        3   5 -0.11730205278592376050 57.6023660000 26.3824160000  4.5292610000
37        3   5 -0.11730205278592376050 56.7601410000 27.7732840000  3.0765300000
38        3   5 -0.11730205278592376050 58.1253160000 26.2089060000  2.4230310000
39        3   2  0.74780058651026393157 53.1651760000 25.5626510000  4.2263610000
40        3   3 -0.38856304985337247748 52.7465500000 25.7045860000  5.6266110000
41        3   3 -0.38856304985337247748 52.6860240000 24.4196140000  3.4359620000
42        3   4  0.25659824046920820528 52.3482630000 27.0580680000  3.4049380000
43        3   5 -0.11730205278592376050 52.7170890000 28.2078030000  4.0033860000
44        3   5 -0.11730205278592376050 52.6571380000 27.1471270000  2.1025380000
45        3   5 -0.11730205278592376050 51.0042700000 26.9549950000  3.5076160000
46        4   1 -0.48387096774193549820 56.5595140000 14.0511180000 43.9200750000
47        4   2  0.74780058651026393157 58.0279050000 13.6041220000 44.4484810000
48        4   3 -0.38856304985337247748 58.4895500000 12.3138060000 43.9163610000
49        4   3 -0.38856304985337247748 59.0160740000 14.6826890000 44.6107780000
50        4   4  0.25659824046920820528 57.4688820000 13.2088760000 46.2073220000
51        4   5 -0.11730205278592376050 56.5265760000 12.2511880000 46.2423110000
52        4   5 -0.11730205278592376050 56.9936640000 14.2955630000 46.8395090000
53        4   5 -0.11730205278592376050 58.5370530000 12.7619640000 46.9032790000
54        4   2  0.74780058651026393157 56.3085490000 14.8631150000 42.5568360000
55        4   3 -0.38856304985337247748 54.9461840000 14.5865040000 42.0840370000
56        4   3 -0.38856304985337247748 57.4238220000 14.8694350000 41.5992450000
57        4   4  0.25659824046920820528 56.1841670000 16.6640460000 43.1221100000
58        4   5 -0.11730205278592376050 55.2114390000 16.8228240000 44.0411600000
59        4   5 -0.11730205278592376050 57.3351460000 17.1052940000 43.6513800000
60        4   5 -0.11730205278592376050 55.8829960000 17.4520320000 42.0657670000
61        5   1 -0.48387096774193549820 17.8944300000  8.7815050000 46.4891000000
62        5   2  0.74780058651026393157 16.4784930000  8.1649760000 46.9893050000
63        5   3 -0.38856304985337247748 15.9222500000  7.1386000000 46.0958130000
64        5   3 -0.38856304985337247748 16.3280010000  7.9780630000 48.4413860000
65        5   4  0.25659824046920820528 15.4680110000  9.7123990000 46.6063440000
66        5   5 -0.11730205278592376050 15.5231210000 10.0516310000 45.3070320000
67        5   5 -0.11730205278592376050 15.8672700000 10.7668340000 47.3378770000
68        5   5 -0.11730205278592376050 14.1760370000  9.4639770000 46.9132130000
69        5   2  0.74780058651026393157 19.3235630000  8.1338240000 46.8338200000
70        5   3 -0.38856304985337247748 20.2866650000  8.5321870000 45.7994930000
71        5   3 -0.38856304985337247748 19.2997930000  6.7429470000 47.3089510000
72        5   4  0.25659824046920820528 19.9128060000  9.1182630000 48.3378240000
73        5   5 -0.11730205278592376050 19.9597440000 10.4384270000 48.0713190000
74        5   5 -0.11730205278592376050 19.1167360000  8.9348280000 49.4018750000
75        5   5 -0.11730205278592376050 21.1601640000  8.7240080000 48.6786260000
76        6   1 -0.48387096774193549820 21.1838590000 41.1878130000  5.0634550000
77        6   2  0.74780058651026393157 22.6052590000 41.1342930000  4.2811830000
78        6   3 -0.38856304985337247748 23.7694750000 40.9689710000  5.1634830000
79        6   3 -0.38856304985337247748 22.6086650000 40.4331930000  2.9871310000
80        6   4  0.25659824046920820528 22.6236740000 42.9655810000  3.8247880000
81        6   5 -0.11730205278592376050 22.5894170000 43.7633110000  4.9058900000
82        6   5 -0.11730205278592376050 21.5966900000 43.2935990000  3.0222370000
83        6   5 -0.11730205278592376050 23.7682290000 43.2262310000  3.1561080000
84        6   2  0.74780058651026393157 20.3276070000 39.8854620000  5.4526300000
85        6   3 -0.38856304985337247748 19.4794150000 40.2034880000  6.6082780000
86        6   3 -0.38856304985337247748 21.0505800000 38.6062390000  5.4107820000
87        6   4  0.25659824046920820528 19.0658840000 39.7409360000  4.0506590000
88        6   5 -0.11730205278592376050 18.3313860000 40.8648560000  3.9349960000
89        6   5 -0.11730205278592376050 19.6533170000 39.5021570000  2.8685050000
90        6   5 -0.11730205278592376050 18.2168640000 38.7206450000  4.3068990000
91        7   1 -0.48387096774193549820  9.5311280000 13.8259540000 24.9715800000
92        7   2  0.74780058651026393157  9.9523240000 15.2452140000 25.6375250000
93        7   3 -0.38856304985337247748  8.9443120000 15.8012620000 26.5518040000
94        7   3 -0.38856304985337247748 11.3725290000 15.4010450000 25.9908800000
95        7   4  0.25659824046920820528  9.7481370000 16.2502170000 24.0530610000
96        7   5 -0.11730205278592376050  8.4970280000 16.1898620000 23.5658120000
97        7   5 -0.11730205278592376050 10.5980600000 15.8505370000 23.0916720000
98        7   5 -0.11730205278592376050 10.0203020000 17.5438740000 24.3313690000
99        7   2  0.74780058651026393157  9.8027900000 12.3997380000 25.6592210000
100       7   3 -0.38856304985337247748  8.8244470000 11.4321220000 25.1467220000
101       7   3 -0.38856304985337247748 10.1135630000 12.4288610000 27.0956840000
102       7   4  0.25659824046920820528 11.4124440000 11.8128370000 24.8574010000
103       7   5 -0.11730205278592376050 11.3007720000 11.7614320000 23.5154070000
104       7   5 -0.11730205278592376050 12.4457030000 12.6129380000 25.1603750000
105       7   5 -0.11730205278592376050 11.7090220000 10.5676930000 25.2923100000
106       8   1 -0.48387096774193549820 19.8658780000 43.7613460000 57.8079570000
107       8   2  0.74780058651026393157 21.4032150000 43.3648280000 58.1464240000
108       8   3 -0.38856304985337247748 22.2134340000 43.0411150000 56.9632350000
109       8   3 -0.38856304985337247748 22.0408320000 44.1124410000 59.2421630000
110       8   4  0.25659824046920820528 20.9893700000 41.6849460000 58.9007290000
111       8   5 -0.11730205278592376050 20.3618920000 40.8738880000 58.0319450000
112       8   5 -0.11730205278592376050 20.2250810000 41.8024720000 60.0000160000
113       8   5 -0.11730205278592376050 22.1440960000 41.0853880000 59.2643440000
114       8   2  0.74780058651026393157 19.3860230000 45.2502430000 57.4423530000
115       8   3 -0.38856304985337247748 18.1582710000 45.1694520000 56.6409870000
116       8   3 -0.38856304985337247748 20.4480720000 46.1893440000 57.0537720000
117       8   4  0.25659824046920820528 18.7524060000 45.9356230000 59.0876910000
118       8   5 -0.11730205278592376050 17.7793150000 45.1569710000 59.6003880000
119       8   5 -0.11730205278592376050 19.7306660000 46.0369640000 60.0000060000
120       8   5 -0.11730205278592376050 18.2327760000 47.1688350000 58.8962290000
121       9   1 -0.48387096774193549820 22.6361980000 18.5026750000 58.4255210000
122       9   2  0.74780058651026393157 22.4989230000 19.3127290000 57.0254650000
123       9   3 -0.38856304985337247748 23.5780790000 20.2816200000 56.7849360000
124       9   3 -0.38856304985337247748 21.9846810000 18.5462280000 55.8790990000
125       9   4  0.25659824046920820528 21.0374590000 20.3716700000 57.5777510000
126       9   5 -0.11730205278592376050 21.3271070000 21.1233380000 58.6535880000
127       9   5 -0.11730205278592376050 19.9551020000 19.6263020000 57.8593770000
128       9   5 -0.11730205278592376050 20.7107200000 21.2066260000 56.5672230000
129       9   2  0.74780058651026393157 23.4837870000 17.1486900000 58.5959880000
130       9   3 -0.38856304985337247748 23.8938130000 17.0194680000 60.0000070000
131       9   3 -0.38856304985337247748 24.4489650000 16.8570090000 57.5263110000
132       9   4  0.25659824046920820528 22.1875730000 15.7816900000 58.4242450000
133       9   5 -0.11730205278592376050 21.1996690000 15.9270140000 59.3292240000
134       9   5 -0.11730205278592376050 21.6351760000 15.7636020000 57.2019060000
135       9   5 -0.11730205278592376050 22.7653900000 14.5782970000 58.6374550000
136      10   1 -0.48387096774193549820 49.6606980000 26.6130820000 43.0362350000
137      10   2  0.74780058651026393157 48.3812060000 25.6178840000 42.9486390000
138      10   3 -0.38856304985337247748 48.1521240000 24.8270450000 44.1665370000
139      10   3 -0.38856304985337247748 47.2085060000 26.1298400000 42.2214520000
140      10   4  0.25659824046920820528 49.1856010000 24.4027020000 41.7492510000
141      10   5 -0.11730205278592376050 50.3079950000 23.8573670000 42.2484200000
142      10   5 -0.11730205278592376050 49.4810930000 24.9800130000 40.5720600000
143      10   5 -0.11730205278592376050 48.3120300000 23.4006900000 41.5085820000
144      10   2  0.74780058651026393157 49.5952860000 28.1035660000 43.6319860000
145      10   3 -0.38856304985337247748 50.9305840000 28.4815180000 44.1118000000
146      10   3 -0.38856304985337247748 48.4132880000 28.4171390000 44.4477110000
147      10   4  0.25659824046920820528 49.3917000000 29.1925510000 42.0986830000
148      10   5 -0.11730205278592376050 50.3962750000 28.9967440000 41.2220130000
149      10   5 -0.11730205278592376050 48.2327070000 28.9572890000 41.4654620000
150      10   5 -0.11730205278592376050 49.4111060000 30.4949170000 42.4605550000
151      11   1 -0.48387096774193549820 38.6077600000 41.3340440000  2.9331090000
152      11   2  0.74780058651026393157 38.7105170000 39.7161260000  2.8495980000
153      11   3 -0.38856304985337247748 40.0785210000 39.1944780000  2.9823840000
154      11   3 -0.38856304985337247748 37.6148580000 38.9621450000  3.4798110000
155      11   4  0.25659824046920820528 38.3505580000 39.6124770000  0.9997510000
156      11   5 -0.11730205278592376050 39.2508060000 40.2868260000  0.2641330000
157      11   5 -0.11730205278592376050 37.1248570000 40.0751680000  0.6998240000
158      11   5 -0.11730205278592376050 38.4031100000 38.3147900000  0.6278290000
159      11   2  0.74780058651026393157 38.4655700000 42.1513410000  4.3088090000
160      11   3 -0.38856304985337247748 38.9877380000 43.5092240000  4.1098480000
161      11   3 -0.38856304985337247748 38.8078230000 41.4122080000  5.5324910000
162      11   4  0.25659824046920820528 36.6042470000 42.4509450000  4.4639560000
163      11   5 -0.11730205278592376050 36.1216400000 43.1023950000  3.3874960000
164      11   5 -0.11730205278592376050 35.9203750000 41.3049260000  4.6001160000
165      11   5 -0.11730205278592376050 36.3561300000 43.2151080000  5.5511450000
166      12   1 -0.48387096774193549820 49.3211060000 49.1718010000 10.5279550000
167      12   2  0.74780058651026393157 49.9566870000 47.8592910000  9.8148300000
168      12   3 -0.38856304985337247748 49.8934170000 46.6411430000 10.6353760000
169      12   3 -0.38856304985337247748 49.7312210000 47.7338370000  8.3658480000
170      12   4  0.25659824046920820528 51.7498420000 48.4287740000  9.9649460000
171      12   5 -0.11730205278592376050 52.1189450000 48.6277030000 11.2418630000
172      12   5 -0.11730205278592376050 51.9768840000 49.5602530000  9.2760420000
173      12   5 -0.11730205278592376050 52.5465960000 47.4666840000  9.4505120000
174      12   2  0.74780058651026393157 47.7648330000 49.5636200000 10.4556170000
175      12   3 -0.38856304985337247748 47.4278780000 50.3854830000 11.6248440000
176      12   3 -0.38856304985337247748 46.8523570000 48.4916540000 10.0323780000
177      12   4  0.25659824046920820528 47.6815410000 50.8167780000  9.0410460000
178      12   5 -0.11730205278592376050 48.5000240000 51.8636110000  9.2652980000
179      12   5 -0.11730205278592376050 48.0172630000 50.2686100000  7.8635980000
180      12   5 -0.11730205278592376050 46.4223390000 51.2965040000  8.9326080000
181      13   1 -0.48387096774193549820 24.8180850000 42.5399760000 32.7552490000
182      13   2  0.74780058651026393157 26.0814060000 43.0049580000 31.8480550000
183      13   3 -0.38856304985337247748 26.7506930000 44.2216530000 32.3306400000
184      13   3 -0.38856304985337247748 26.9152450000 41.9262480000 31.2937790000
185      13   4  0.25659824046920820528 25.0413960000 43.5942160000 30.3874370000
186      13   5 -0.11730205278592376050 24.1853560000 44.5722030000 30.7295830000
187      13   5 -0.11730205278592376050 24.3400790000 42.5907230000 29.8328750000
188      13   5 -0.11730205278592376050 25.8732410000 44.0859580000 29.4433500000
189      13   2  0.74780058651026393157 24.9453590000 41.5965620000 34.0492780000
190      13   3 -0.38856304985337247748 23.8053320000 41.8543530000 34.9380810000
191      13   3 -0.38856304985337247748 26.2949820000 41.4643780000 34.6166420000
192      13   4  0.25659824046920820528 24.5596580000 39.8677010000 33.3854770000
193      13   5 -0.11730205278592376050 23.3484410000 39.8283690000 32.7960130000
194      13   5 -0.11730205278592376050 25.4725390000 39.4570570000 32.4923920000
195      13   5 -0.11730205278592376050 24.5481100000 38.9812960000 34.4060830000
196      14   1 -0.48387096774193549820 49.7798410000 11.8495260000 30.0883340000
197      14   2  0.74780058651026393157 49.4010280000 13.3893990000 30.4354410000
198      14   3 -0.38856304985337247748 50.5636930000 14.2446890000 30.7144940000
199      14   3 -0.38856304985337247748 48.2775740000 13.9679930000 29.6809850000
200      14   4  0.25659824046920820528 48.6805020000 13.0133760000 32.1388780000
201      14   5 -0.11730205278592376050 49.5776160000 12.4405380000 32.9594700000
202      14   5 -0.11730205278592376050 47.6029300000 12.2136990000 32.0631180000
203      14   5 -0.11730205278592376050 48.2904360000 14.1774820000 32.7025990000
204      14   2  0.74780058651026393157 50.1407270000 11.3282100000 28.6122810000
205      14   3 -0.38856304985337247748 50.9790400000 10.1279550000 28.7250220000
206      14   3 -0.38856304985337247748 50.4858510000 12.3672790000 27.6314250000
207      14   4  0.25659824046920820528 48.5063730000 10.6230860000 27.9719340000
208      14   5 -0.11730205278592376050 48.0325450000  9.6635940000 28.7910350000
209      14   5 -0.11730205278592376050 47.5642960000 11.5701510000 27.8488900000
210      14   5 -0.11730205278592376050 48.6976020000 10.0659970000 26.7551470000
211      15   1 -0.48387096774193549820 45.1454870000  6.1818760000 55.3273530000
212      15   2  0.74780058651026393157 45.9114650000  6.0420200000 56.7517510000
213      15   3 -0.38856304985337247748 45.0280320000  5.7036580000 57.8770240000
214      15   3 -0.38856304985337247748 47.2508640000  5.4332790000 56.7121390000
215      15   4  0.25659824046920820528 46.2395250000  7.8893230000 56.9569320000
216      15   5 -0.11730205278592376050 45.1062390000  8.6114640000 56.9793740000
217      15   5 -0.11730205278592376050 47.0303850000  8.3703240000 55.9824780000
218      15   5 -0.11730205278592376050 46.8739300000  8.0809070000 58.1341760000
219      15   2  0.74780058651026393157 44.8584510000  4.9466410000 54.3411760000
220      15   3 -0.38856304985337247748 43.6944040000  5.2674660000 53.5056180000
221      15   3 -0.38856304985337247748 44.9797010000  3.6083350000 54.9370700000
222      15   4  0.25659824046920820528 46.2829840000  5.0221650000 53.0988570000
223      15   5 -0.11730205278592376050 46.3297680000  6.2180840000 52.4794610000
224      15   5 -0.11730205278592376050 47.4712900000  4.8074480000 53.6831570000
225      15   5 -0.11730205278592376050 46.1089070000  4.0752680000 52.1498740000
226      16   1 -0.48387096774193549820 53.3343090000 43.1553280000 16.7758990000
227      16   2  0.74780058651026393157 53.0776700000 44.6697090000 16.2505650000
228      16   3 -0.38856304985337247748 51.7815590000 45.2332350000 16.6551820000
229      16   3 -0.38856304985337247748 54.2493390000 45.5603030000 16.2378880000
230      16   4  0.25659824046920820528 52.8318140000 44.1889980000 14.4420510000
231      16   5 -0.11730205278592376050 51.8055800000 43.3377210000 14.2732340000
232      16   5 -0.11730205278592376050 53.9361770000 43.6325720000 13.9155970000
233      16   5 -0.11730205278592376050 52.5589610000 45.3087240000 13.7371810000
234      16   2  0.74780058651026393157 53.9660330000 42.8011310000 18.2098480000
235      16   3 -0.38856304985337247748 53.5215880000 41.4586900000 18.6053400000
236      16   3 -0.38856304985337247748 53.9635700000 43.8890550000 19.1984180000
237      16   4  0.25659824046920820528 55.8006690000 42.5282350000 17.8383710000
238      16   5 -0.11730205278592376050 55.9747310000 41.5665040000 16.9105580000
239      16   5 -0.11730205278592376050 56.3959770000 43.6466880000 17.3976300000
240      16   5 -0.11730205278592376050 56.4381180000 42.1332490000 18.9631520000
241      17   1 -0.48387096774193549820 36.1429980000 46.7344350000 26.1785270000
242      17   2  0.74780058651026393157 37.3819470000 45.7830200000 26.6201190000
243      17   3 -0.38856304985337247748 38.6051630000 46.5173160000 26.9747100000
244      17   3 -0.38856304985337247748 37.0354540000 44.5885590000 27.4070930000
245      17   4  0.25659824046920820528 37.7225830000 45.1217350000 24.8854950000
246      17   5 -0.11730205278592376050 38.0272750000 46.0995250000 24.0151970000
247      17   5 -0.11730205278592376050 36.6789310000 44.4292760000 24.3979790000
248      17   5 -0.11730205278592376050 38.7794630000 44.2827070000 24.9496360000
249      17   2  0.74780058651026393157 35.0975000000 47.3794130000 27.2137460000
250      17   3 -0.38856304985337247748 34.5256700000 48.5927060000 26.6162320000
251      17   3 -0.38856304985337247748 35.5137100000 47.3892760000 28.6235420000
252      17   4  0.25659824046920820528 33.6337010000 46.1817030000 27.1799960000
253      17   5 -0.11730205278592376050 33.1487800000 46.0360260000 25.9311200000
254      17   5 -0.11730205278592376050 33.9669680000 44.9676000000 27.6431030000
255      17   5 -0.11730205278592376050 32.6352630000 46.6625690000 27.9541900000
256      18   1 -0.48387096774193549820 46.6112100000 39.4903600000 44.3381810000
257      18   2  0.74780058651026393157 46.9033530000 41.0838240000 44.2346610000
258      18   3 -0.38856304985337247748 47.1373130000 41.7360730000 45.5312010000
259      18   3 -0.38856304985337247748 47.7037580000 41.5239760000 43.0806500000
260      18   4  0.25659824046920820528 45.1320960000 41.5585150000 43.7879300000
261      18   5 -0.11730205278592376050 44.2498750000 41.1936240000 44.7339050000
262      18   5 -0.11730205278592376050 44.7475350000 41.0199100000 42.6181440000
263      18   5 -0.11730205278592376050 45.0701320000 42.9022160000 43.6626050000
264      18   2  0.74780058651026393157 47.7618770000 38.3694790000 44.3564600000
265      18   3 -0.38856304985337247748 47.2478600000 37.1731960000 45.0352710000
266      18   3 -0.38856304985337247748 49.1193520000 38.8483750000 44.6544100000
267      18   4  0.25659824046920820528 47.8651770000 37.8011540000 42.5551570000
268      18   5 -0.11730205278592376050 46.6728540000 37.3548900000 42.1132560000
269      18   5 -0.11730205278592376050 48.2709420000 38.7861660000 41.7398750000
270      18   5 -0.11730205278592376050 48.7487310000 36.7834520000 42.4497950000
271      19   1 -0.48387096774193549820 17.2844870000 13.8080970000 22.9532880000
272      19   2  0.74780058651026393157 16.6482540000 12.5274960000 22.1848750000
273      19   3 -0.38856304985337247748 15.3559460000 12.0838580000 22.7273750000
274      19   3 -0.38856304985337247748 16.8422600000 12.4825460000 20.7266340000
275      19   4  0.25659824046920820528 17.8909590000 11.2798460000 22.8640680000
276      19   5 -0.11730205278592376050 17.8711970000 11.2159760000 24.2064010000
277      19   5 -0.11730205278592376050 19.1460640000 11.5558230000 22.4704560000
278      19   5 -0.11730205278592376050 17.5698250000 10.0569030000 22.3882930000
279      19   2  0.74780058651026393157 16.9440820000 15.3335960000 22.5821840000
280      19   3 -0.38856304985337247748 17.1695290000 16.1714730000 23.7667620000
281      19   3 -0.38856304985337247748 15.7420250000 15.5414630000 21.7619980000
282      19   4  0.25659824046920820528 18.3653630000 15.8479670000 21.4447590000
283      19   5 -0.11730205278592376050 19.5592290000 15.6843840000 22.0480720000
284      19   5 -0.11730205278592376050 18.3745990000 15.1446830000 20.3024420000
285      19   5 -0.11730205278592376050 18.2422420000 17.1561270000 21.1268860000
286      20   1 -0.48387096774193549820 57.3372870000 27.7874730000 31.7866210000
287      20   2  0.74780058651026393157 58.6342960000 27.3710270000 32.6695300000
288      20   3 -0.38856304985337247748 59.8445880000 28.1458360000 32.3596140000
289      20   3 -0.38856304985337247748 58.3770540000 27.0159520000 34.0744760000
290      20   4  0.25659824046920820528 58.9089540000 25.7144950000 31.8077210000
291      20   5 -0.11730205278592376050 59.1286400000 25.8532900000 30.4890850000
292      20   5 -0.11730205278592376050 57.8691920000 24.8803810000 31.9795630000
293      20   5 -0.11730205278592376050 59.9999910000 25.1291320000 32.3481530000
294      20   2  0.74780058651026393157 56.3231200000 28.9668030000 32.1883530000
295      20   3 -0.38856304985337247748 55.6732590000 29.4686280000 30.9710020000
296      20   3 -0.38856304985337247748 56.8122470000 29.9178040000 33.1969190000
297      20   4  0.25659824046920820528 54.9079190000 28.0653040000 33.0617710000
298      20   5 -0.11730205278592376050 54.3640530000 27.1220580000 32.2676930000
299      20   5 -0.11730205278592376050 55.3126920000 27.4741270000 34.1959000000
300      20   5 -0.11730205278592376050 53.9334400000 28.9474980000 33.3773810000
301      21   1 -0.48387096774193549820  8.9954950000 18.1315130000 47.3070700000
302      21   2  0.74780058651026393157  8.0286720000 17.1909900000 46.4038210000
303      21   3 -0.38856304985337247748  8.6065360000 15.8805830000 46.0720280000
304      21   3 -0.38856304985337247748  6.5896190000 17.2600430000 46.7046260000
305      21   4  0.25659824046920820528  8.2283050000 18.2014450000 44.8222460000
306      21   5 -0.11730205278592376050  9.5078930000 18.2714520000 44.4171780000
307      21   5 -0.11730205278592376050  7.7583040000 19.4527220000 44.9629080000
308      21   5 -0.11730205278592376050  7.5175990000 17.6025260000 43.8418020000
309      21   2  0.74780058651026393157  9.0460740000 18.0818460000 48.9119740000
310      21   3 -0.38856304985337247748 10.3589980000 18.5629250000 49.3601770000
311      21   3 -0.38856304985337247748  8.4566350000 16.8884310000 49.5358140000
312      21   4  0.25659824046920820528  7.8962040000 19.4872070000 49.4421760000
313      21   5 -0.11730205278592376050  8.2884650000 20.6651230000 48.9180500000
314      21   5 -0.11730205278592376050  6.6268200000 19.2658400000 49.0690240000
315      21   5 -0.11730205278592376050  7.9187960000 19.6093870000 50.7882990000
316      22   1 -0.48387096774193549820 54.9898000000 20.2693930000 23.1232710000
317      22   2  0.74780058651026393157 55.7087080000 20.9437540000 24.4130760000
318      22   3 -0.38856304985337247748 55.3940340000 22.3677300000 24.5986970000
319      22   3 -0.38856304985337247748 55.8235390000 20.0954510000 25.6102900000
320      22   4  0.25659824046920820528 57.4426850000 20.9437560000 23.6677080000
321      22   5 -0.11730205278592376050 57.5113340000 21.6564230000 22.5302890000
322      22   5 -0.11730205278592376050 57.8811430000 19.6985000000 23.4157650000
323      22   5 -0.11730205278592376050 58.2889150000 21.5058650000 24.5582160000
324      22   2  0.74780058651026393157 53.5154660000 19.6320410000 23.1526550000
325      22   3 -0.38856304985337247748 52.9549910000 19.6706830000 21.7960170000
326      22   3 -0.38856304985337247748 52.6754880000 20.0107970000 24.2980090000
327      22   4  0.25659824046920820528 53.8289760000 17.7843550000 23.4097990000
328      22   5 -0.11730205278592376050 54.6231380000 17.2831790000 22.4432640000
329      22   5 -0.11730205278592376050 54.4038270000 17.5323710000 24.5953920000
330      22   5 -0.11730205278592376050 52.6558920000 17.1139880000 23.3654280000
331      23   1 -0.48387096774193549820 23.2336990000 53.2159180000 35.4861240000
332      23   2  0.74780058651026393157 23.7887240000 54.2874810000 34.4003570000
333      23   3 -0.38856304985337247748 25.2252610000 54.5751330000 34.5220080000
334      23   3 -0.38856304985337247748 23.2083190000 54.2044910000 33.0504060000
335      23   4  0.25659824046920820528 22.9466000000 55.7838170000 35.1839750000