Generated by pymatgen.io.lammps.data.LammpsData

17330  atoms
16565  bonds
29874  angles
31215  dihedrals

   15  atom types
   14  bond types
   23  angle types
   19  dihedral types

-0.2500000000 60.2500000000  xlo xhi
-0.2500000000 60.2500000000  ylo yhi
-0.2500000000 60.2500000000  zlo zhi

Masses

1   15.99940
2   12.01070
3    1.00794
4   14.01000
5   32.06000
6   16.00000
7   12.01000
8   19.00000
9   16.00000
10  12.01000
11  12.01000
12   1.00800
13  32.06000
14  32.06000
15   6.94100

Pair Coeffs

1     0.1400  2.900000
2     0.0660  3.500000
3     0.0300  2.500000
4       0.17  3.249999
5       0.25  3.549340
6       0.21  2.959566
7      0.066  3.499450
8      0.053  2.948875
9       0.14  2.900000
10     0.066  3.500000
11     0.066  3.500000
12      0.03  2.500000
13  0.344001  3.590322
14  0.344001  3.590322
15  0.165057  1.506000

Bond Coeffs

1   320.00  1.410
2   268.00  1.529
3   340.00  1.090
4   441.80  1.323
5   235.40  1.818
6   637.10  1.442
7   372.00  1.570
8   320.00  1.410
9   320.00  1.380
10  268.00  1.529
11  340.00  1.090
12  340.00  1.090
13  157.87  2.133
14  154.36  2.117


Angle Coeffs

1    60.00  109.50
2    50.00  109.50
3    58.35  112.70
4    37.50  110.70
5    33.00  107.80
6    35.00  109.50
7    93.30  107.10
8    82.90  111.80
9   104.00  102.60
10  115.80  118.50
11   94.30  113.60
12   97.50  100.20
13   80.20  125.60
14   60.00  109.50
15   50.00  109.50
16   35.00  109.50
17   37.50  110.70
18   33.00  107.80
19   92.60  111.55
20   35.00  109.50
21   33.00  109.50
22   73.56  112.74
23   73.56  112.74


Dihedral Coeffs

1 3 0.062500000 1 0.000000000 -0.011000000 2 180.000000000 0.280500000 3 0.000000000
2 1 0.370500000 3 0.000000000
3 1 0.234000000 3 0.000000000
4 1 0.150000000 3 0.000000000
5 1 0.173400000 3 0.000000000
6 1 0.158000000 3 0.000000000
7 1 -0.001800000 3 0.000000000
8 3 3.916460000 1 0.000000000 -1.245000000 2 180.000000000 -0.381800000 3 0.000000000
9 3 0.062500000 1 0.000000000 -0.011000000 2 180.000000000 0.280500000 3 0.000000000
10 3 0.062500000 1 0.000000000 -0.011000000 2 180.000000000 0.280500000 3 0.000000000
11 1 0.370500000 3 0.000000000
12 1 0.370500000 3 0.000000000
13 3 -0.533500000 1 0.000000000 -0.783500000 2 180.000000000 0.337500000 3 0.000000000
14 1 0.370500000 3 0.000000000
15 3 1.119000000 1 0.000000000 -1.163500000 2 180.000000000 -0.341500000 3 0.000000000
16 1 0.234000000 3 0.000000000
17 1 0.150000000 3 0.000000000
18 4 5.431700000 1 0.000000000 -3.590000000 2 180.000000000 1.055600000 3 0.000000000 0.058320000 4 180.000000000
19 4 5.431700000 1 0.000000000 -3.590000000 2 180.000000000 1.055600000 3 0.000000000 0.058320000 4 180.000000000


Atoms

1         1   1 -0.40000000000000002220 12.3830430000 20.5565380000  1.1679660000
2         1   2  0.20000000000000001110 13.2668110000 20.5108730000  2.3106410000
3         1   2 -0.17999999999999999334 13.4943770000 19.0618230000  2.7730900000
4         1   2 -0.17999999999999999334 14.5723280000 21.1049630000  1.7712360000
5         1   2 -0.17999999999999999334 12.7257890000 21.3742320000  3.4617420000
6         1   2  0.11000000000000000056 11.0601270000 20.0748140000  1.3280820000
7         1   3  0.05999999999999999778 13.8106770000 18.4404280000  1.9274490000
8         1   3  0.05999999999999999778 14.2767480000 19.0292260000  3.5396630000
9         1   3  0.05999999999999999778 12.5897410000 18.6227210000  3.2084070000
10        1   3  0.05999999999999999778 14.4029680000 22.1267550000  1.4155190000
11        1   3  0.05999999999999999778 15.3414410000 21.1266690000  2.5526920000
12        1   3  0.05999999999999999778 14.9407990000 20.5064220000  0.9314190000
13        1   3  0.05999999999999999778 12.4984630000 22.3843130000  3.1028980000
14        1   3  0.05999999999999999778 11.8180290000 20.9479840000  3.9036200000
15        1   3  0.05999999999999999778 13.4741990000 21.4496720000  4.2603760000
16        1   3  0.02999999999999999889 10.5756010000 20.1984350000  0.3556550000
17        1   3  0.02999999999999999889 11.0307300000 19.0096230000  1.5995160000
18        1   3  0.02999999999999999889 10.4913490000 20.6480410000  2.0756460000
19        2   1 -0.40000000000000002220 37.9012400000 41.7365430000 32.7073300000
20        2   2  0.20000000000000001110 37.6977410000 40.8069880000 33.7951500000
21        2   2 -0.17999999999999999334 37.1600070000 41.5283860000 35.0424760000
22        2   2 -0.17999999999999999334 36.6403340000 39.8445060000 33.2439750000
23        2   2 -0.17999999999999999334 38.9926990000 40.0446960000 34.1193770000
24        2   2  0.11000000000000000056 38.8435760000 42.7791780000 32.8882040000
25        2   3  0.05999999999999999778 36.2785970000 42.1259320000 34.7829700000
26        2   3  0.05999999999999999778 36.8712200000 40.7970750000 35.8057500000
27        2   3  0.05999999999999999778 37.9100490000 42.1905210000 35.4893430000
28        2   3  0.05999999999999999778 37.0131200000 39.3526870000 32.3393100000
29        2   3  0.05999999999999999778 36.3901670000 39.0761070000 33.9853650000
30        2   3  0.05999999999999999778 35.7288050000 40.3933620000 32.9847730000
31        2   3  0.05999999999999999778 39.4058240000 39.5958680000 33.2091090000
32        2   3  0.05999999999999999778 39.7532560000 40.6968380000 34.5634880000
33        2   3  0.05999999999999999778 38.7879270000 39.2429900000 34.8397680000
34        2   3  0.02999999999999999889 38.8359710000 43.3555700000 31.9590230000
35        2   3  0.02999999999999999889 38.5743060000 43.4499080000 33.7169300000
36        2   3  0.02999999999999999889 39.8632990000 42.4003580000 33.0543680000
37        3   1 -0.40000000000000002220 54.4357090000 29.5236940000 16.1374350000
38        3   2  0.20000000000000001110 53.2312240000 29.3614580000 15.3553020000
39        3   2 -0.17999999999999999334 53.4432100000 29.8457330000 13.9110260000
40        3   2 -0.17999999999999999334 52.9978950000 27.8470640000 15.3763340000
41        3   2 -0.17999999999999999334 52.0462860000 30.0908160000 16.0088220000
42        3   2  0.11000000000000000056 54.9378570000 30.8353860000 16.3248180000
43        3   3  0.05999999999999999778 54.3331420000 29.3725300000 13.4804630000
44        3   3  0.05999999999999999778 52.5768700000 29.5820140000 13.2940100000
45        3   3  0.05999999999999999778 53.5663920000 30.9331670000 13.8563290000
46        3   3  0.05999999999999999778 52.8758030000 27.4986480000 16.4073410000
47        3   3  0.05999999999999999778 52.0983240000 27.5845500000 14.8066490000
48        3   3  0.05999999999999999778 53.8561630000 27.3267680000 14.9381760000
49        3   3  0.05999999999999999778 51.9502980000 29.7920920000 17.0587070000
50        3   3  0.05999999999999999778 52.1590740000 31.1799820000 15.9644670000
51        3   3  0.05999999999999999778 51.1141670000 29.8368950000 15.4889140000
52        3   3  0.02999999999999999889 55.8402510000 30.7276310000 16.9328770000
53        3   3  0.02999999999999999889 55.2120610000 31.3198600000 15.3765200000
54        3   3  0.02999999999999999889 54.2304790000 31.4835830000 16.8637120000
55        4   1 -0.40000000000000002220 41.4918500000 17.0894210000 17.1258520000
56        4   2  0.20000000000000001110 40.8269510000 17.4127250000 15.8839890000
57        4   2 -0.17999999999999999334 39.3902830000 16.8639350000 15.8695740000
58        4   2 -0.17999999999999999334 40.8077010000 18.9450110000 15.8823070000
59        4   2 -0.17999999999999999334 41.6246960000 16.8899880000 14.6783860000
60        4   2  0.11000000000000000056 41.6831660000 15.7219050000 17.4438130000
61        4   3  0.05999999999999999778 38.8541680000 17.1844420000 16.7702080000
62        4   3  0.05999999999999999778 38.8517600000 17.2403000000 14.9925660000
63        4   3  0.05999999999999999778 39.3691420000 15.7693740000 15.8230260000
64        4   3  0.05999999999999999778 41.8302640000 19.3349900000 15.9217500000
65        4   3  0.05999999999999999778 40.3195810000 19.3264960000 14.9773830000
66        4   3  0.05999999999999999778 40.2652090000 19.3166700000 16.7580270000
67        4   3  0.05999999999999999778 42.6655150000 17.2273920000 14.7380660000
68        4   3  0.05999999999999999778 41.6149400000 15.7955720000 14.6224390000
69        4   3  0.05999999999999999778 41.1896510000 17.2692570000 13.7453710000
70        4   3  0.02999999999999999889 42.1936800000 15.7068110000 18.4106690000
71        4   3  0.02999999999999999889 40.7334310000 15.1764940000 17.5423120000
72        4   3  0.02999999999999999889 42.3161890000 15.2035350000 16.7079300000
73        5   1 -0.40000000000000002220 13.2965440000 33.3215550000 50.2766710000
74        5   2  0.20000000000000001110 12.8829250000 32.7900010000 51.5554230000
75        5   2 -0.17999999999999999334 14.0943460000 32.5642810000 52.4756950000
76        5   2 -0.17999999999999999334 11.9858780000 33.8948820000 52.1235930000
77        5   2 -0.17999999999999999334 12.0795980000 31.4912050000 51.3795630000
78        5   2  0.11000000000000000056 14.1507780000 32.5296910000 49.4698020000
79        5   3  0.05999999999999999778 14.6987370000 33.4766470000 52.5355810000
80        5   3  0.05999999999999999778 13.7573970000 32.3041370000 53.4854440000
81        5   3  0.05999999999999999778 14.7324000000 31.7468030000 52.1217290000
82        5   3  0.05999999999999999778 11.1389420000 34.0750020000 51.4531220000
83        5   3  0.05999999999999999778 11.6002590000 33.6130830000 53.1107960000
84        5   3  0.05999999999999999778 12.5511680000 34.8278850000 52.2198550000
85        5   3  0.05999999999999999778 11.2628260000 31.6449890000 50.6654610000
86        5   3  0.05999999999999999778 12.7056750000 30.6659950000 51.0217540000
87        5   3  0.05999999999999999778 11.6479070000 31.1820150000 52.3395990000
88        5   3  0.02999999999999999889 14.3370090000 33.1148470000 48.5650530000
89        5   3  0.02999999999999999889 15.1151330000 32.3226570000 49.9559390000
90        5   3  0.02999999999999999889 13.6876990000 31.5751380000 49.1776770000
91        6   1 -0.40000000000000002220 40.3252930000 42.9654930000 52.7600180000
92        6   2  0.20000000000000001110 39.6345700000 42.5823620000 51.5496660000
93        6   2 -0.17999999999999999334 40.6323490000 42.1891250000 50.4473070000
94        6   2 -0.17999999999999999334 38.8157860000 41.3612680000 51.9818620000
95        6   2 -0.17999999999999999334 38.7010470000 43.7047130000 51.0680110000
96        6   2  0.11000000000000000056 41.1852440000 44.0905520000 52.7097520000
97        6   3  0.05999999999999999778 41.3378910000 41.4405290000 50.8255920000
98        6   3  0.05999999999999999778 40.0987880000 41.7617880000 49.5908640000
99        6   3  0.05999999999999999778 41.2020040000 43.0510930000 50.0823660000
100       6   3  0.05999999999999999778 38.1258110000 41.6356320000 52.7868060000
101       6   3  0.05999999999999999778 38.2354990000 40.9647530000 51.1400040000
102       6   3  0.05999999999999999778 39.4799110000 40.5737240000 52.3533810000
103       6   3  0.05999999999999999778 38.0441910000 44.0269730000 51.8837290000
104       6   3  0.05999999999999999778 39.2585870000 44.5750810000 50.7038950000
105       6   3  0.05999999999999999778 38.0765550000 43.3463960000 50.2402160000
106       6   3  0.02999999999999999889 41.5988140000 44.1978160000 53.7162890000
107       6   3  0.02999999999999999889 42.0169700000 43.9525590000 52.0038050000
108       6   3  0.02999999999999999889 40.6506870000 45.0174110000 52.4525900000
109       7   1 -0.40000000000000002220 55.9659200000 51.0605970000 17.8540130000
110       7   2  0.20000000000000001110 56.9962670000 51.6697450000 18.6640500000
111       7   2 -0.17999999999999999334 58.3494870000 51.6589210000 17.9332470000
112       7   2 -0.17999999999999999334 56.5019110000 53.1094980000 18.8401110000
113       7   2 -0.17999999999999999334 57.1067500000 50.9749480000 20.0308640000
114       7   2  0.11000000000000000056 56.1132870000 49.6958390000 17.5025570000
115       7   3  0.05999999999999999778 58.2418350000 52.0916170000 16.9320120000
116       7   3  0.05999999999999999778 59.0836210000 52.2516280000 18.4905150000
117       7   3  0.05999999999999999778 58.7539340000 50.6455130000 17.8327380000
118       7   3  0.05999999999999999778 55.5248590000 53.1148610000 19.3346980000
119       7   3  0.05999999999999999778 57.2070060000 53.6910780000 19.4461530000
120       7   3  0.05999999999999999778 56.3944040000 53.5937540000 17.8637650000
121       7   3  0.05999999999999999778 56.1226670000 50.9235540000 20.5100800000
122       7   3  0.05999999999999999778 57.5064690000 49.9582660000 19.9439530000
123       7   3  0.05999999999999999778 57.7831710000 51.5376180000 20.6862130000
124       7   3  0.02999999999999999889 55.2380230000 49.4453500000 16.8968930000
125       7   3  0.02999999999999999889 57.0165620000 49.5114020000 16.9031830000
126       7   3  0.02999999999999999889 56.1288610000 49.0343700000 18.3818560000
127       8   1 -0.40000000000000002220  4.0872200000 20.8952330000 54.8284560000
128       8   2  0.20000000000000001110  4.7508830000 19.6701660000 55.2126450000
129       8   2 -0.17999999999999999334  5.9434160000 19.3763680000 54.2869340000
130       8   2 -0.17999999999999999334  5.2443750000 19.9663630000 56.6328590000
131       8   2 -0.17999999999999999334  3.7658740000 18.4900550000 55.2276620000
132       8   2  0.11000000000000000056  3.4987690000 20.9597690000 53.5410710000
133       8   3  0.05999999999999999778  6.6007560000 20.2514220000 54.2280240000
134       8   3  0.05999999999999999778  6.5234800000 18.5319500000 54.6758880000
135       8   3  0.05999999999999999778  5.6214130000 19.1141280000 53.2729220000
136       8   3  0.05999999999999999778  4.3969730000 20.2037560000 57.2846480000
137       8   3  0.05999999999999999778  5.7766680000 19.1018210000 57.0474830000
138       8   3  0.05999999999999999778  5.9222770000 20.8264230000 56.6252350000
139       8   3  0.05999999999999999778  2.8859400000 18.7390350000 55.8313440000
140       8   3  0.05999999999999999778  3.4325980000 18.2200600000 54.2191970000
141       8   3  0.05999999999999999778  4.2455750000 17.6041040000 55.6619490000
142       8   3  0.02999999999999999889  3.0622500000 21.9590390000 53.4599950000
143       8   3  0.02999999999999999889  4.2363520000 20.8349170000 52.7351210000
144       8   3  0.02999999999999999889  2.6970550000 20.2179250000 53.4073800000
145       9   1 -0.40000000000000002220 33.5015430000  6.0614030000 42.7771540000
146       9   2  0.20000000000000001110 32.6969050000  7.2320000000 43.0437970000
147       9   2 -0.17999999999999999334 33.0601430000  7.8516560000 44.4037520000
148       9   2 -0.17999999999999999334 33.0775970000  8.1882060000 41.9084480000
149       9   2 -0.17999999999999999334 31.1978070000  6.8982230000 42.9772600000
150       9   2  0.11000000000000000056 33.3853420000  4.9572950000 43.6576340000
151       9   3  0.05999999999999999778 34.1416140000  8.0183220000 44.4664300000
152       9   3  0.05999999999999999778 32.5526880000  8.8150820000 44.5266310000
153       9   3  0.05999999999999999778 32.7575350000  7.2121430000 45.2404890000
154       9   3  0.05999999999999999778 32.8452290000  7.7342850000 40.9393070000
155       9   3  0.05999999999999999778 32.5282990000  9.1333620000 41.9958120000
156       9   3  0.05999999999999999778 34.1513930000  8.4012300000 41.9384130000
157       9   3  0.05999999999999999778 30.9643250000  6.3912070000 42.0343240000
158       9   3  0.05999999999999999778 30.8827090000  6.2552850000 43.8069070000
159       9   3  0.05999999999999999778 30.6037620000  7.8189000000 43.0328510000
160       9   3  0.02999999999999999889 34.0722980000  4.1962300000 43.2774570000
161       9   3  0.02999999999999999889 33.6781730000  5.2083350000 44.6873910000
162       9   3  0.02999999999999999889 32.3695620000  4.5342250000 43.6699640000
163      10   1 -0.40000000000000002220  4.6264440000 13.7007480000  6.4844910000
164      10   2  0.20000000000000001110  4.8284790000 12.7054210000  7.5127640000
165      10   2 -0.17999999999999999334  6.2900550000 12.6971560000  7.9914290000
166      10   2 -0.17999999999999999334  3.9046770000 13.1725280000  8.6426640000
167      10   2 -0.17999999999999999334  4.4052250000 11.3113370000  7.0223430000
168      10   2  0.11000000000000000056  5.3452630000 13.5620180000  5.2712910000
169      10   3  0.05999999999999999778  6.6021990000 13.7101080000  8.2703180000
170      10   3  0.05999999999999999778  6.3961260000 12.0475890000  8.8675650000
171      10   3  0.05999999999999999778  6.9726550000 12.3225520000  7.2204520000
172      10   3  0.05999999999999999778  2.8676220000 13.2057970000  8.2924000000
173      10   3  0.05999999999999999778  3.9653520000 12.4920930000  9.5005720000
174      10   3  0.05999999999999999778  4.1880510000 14.1782720000  8.9705250000
175      10   3  0.05999999999999999778  3.3880390000 11.3455360000  6.6162990000
176      10   3  0.05999999999999999778  5.0778880000 10.9265280000  6.2474760000
177      10   3  0.05999999999999999778  4.4228850000 10.5973130000  7.8551000000
178      10   3  0.02999999999999999889  5.0486130000 14.4098090000  4.6476620000
179      10   3  0.02999999999999999889  6.4339040000 13.6030510000  5.4207840000
180      10   3  0.02999999999999999889  5.0944340000 12.6328970000  4.7376540000
181      11   1 -0.40000000000000002220 26.5087330000 45.9487600000 26.7383420000
182      11   2  0.20000000000000001110 26.8815990000 44.6369510000 27.2168460000
183      11   2 -0.17999999999999999334 26.0178840000 44.2239270000 28.4205070000
184      11   2 -0.17999999999999999334 26.5883750000 43.7275990000 26.0187760000
185      11   2 -0.17999999999999999334 28.3763880000 44.5830760000 27.5715780000
186      11   2  0.11000000000000000056 26.6634720000 47.0486740000 27.6181410000
187      11   3  0.05999999999999999778 24.9546650000 44.3354460000 28.1788170000
188      11   3  0.05999999999999999778 26.2072260000 43.1758660000 28.6784190000
189      11   3  0.05999999999999999778 26.2376350000 44.8256450000 29.3095070000
190      11   3  0.05999999999999999778 27.1824900000 44.0404200000 25.1536490000
191      11   3  0.05999999999999999778 26.8308310000 42.6843190000 26.2542820000
192      11   3  0.05999999999999999778 25.5291580000 43.7901240000 25.7477340000
193      11   3  0.05999999999999999778 28.9781480000 44.9487640000 26.7320160000
194      11   3  0.05999999999999999778 28.6105220000 45.1845090000 28.4572590000
195      11   3  0.05999999999999999778 28.6752410000 43.5501190000 27.7890930000
196      11   3  0.02999999999999999889 26.3248810000 47.9276220000 27.0627420000
197      11   3  0.02999999999999999889 26.0491900000 46.9511350000 28.5249570000
198      11   3  0.02999999999999999889 27.7115830000 47.2064590000 27.9139720000
199      12   1 -0.40000000000000002220 43.1305270000 28.7414830000 40.5894250000
200      12   2  0.20000000000000001110 42.8725150000 28.0697320000 41.8428280000
201      12   2 -0.17999999999999999334 41.9655280000 28.9210830000 42.7472440000
202      12   2 -0.17999999999999999334 42.1429620000 26.7918770000 41.4149100000
203      12   2 -0.17999999999999999334 44.1853830000 27.7170870000 42.5605670000
204      12   2  0.11000000000000000056 43.8127850000 29.9828510000 40.6259080000
205      12   3  0.05999999999999999778 41.0660430000 29.2264950000 42.2004940000
206      12   3  0.05999999999999999778 41.6582200000 28.3419330000 43.6252810000
207      12   3  0.05999999999999999778 42.4749650000 29.8210600000 43.1094500000
208      12   3  0.05999999999999999778 42.7786300000 26.2002090000 40.7477300000
209      12   3  0.05999999999999999778 41.8839790000 26.1812810000 42.2882840000
210      12   3  0.05999999999999999778 41.2231320000 27.0444980000 40.8769420000
211      12   3  0.05999999999999999778 44.8533470000 27.1738970000 41.8827200000
212      12   3  0.05999999999999999778 44.7072870000 28.6093470000 42.9245150000
213      12   3  0.05999999999999999778 43.9803800000 27.0803610000 43.4301530000
214      12   3  0.02999999999999999889 43.8975220000 30.3098010000 39.5859150000
215      12   3  0.02999999999999999889 43.2606730000 30.7494490000 41.1886440000
216      12   3  0.02999999999999999889 44.8258340000 29.8938410000 41.0463360000
217      13   1 -0.40000000000000002220 15.0395010000 13.5367590000  3.1021240000
218      13   2  0.20000000000000001110 15.0990280000 12.6860820000  1.9352300000
219      13   2 -0.17999999999999999334 14.5842790000 11.2730140000  2.2572030000
220      13   2 -0.17999999999999999334 14.1571760000 13.3789930000  0.9447440000
221      13   2 -0.17999999999999999334 16.5250360000 12.6321340000  1.3636330000
222      13   2  0.11000000000000000056 15.8176340000 13.1770310000  4.2303550000
223      13   3  0.05999999999999999778 13.5971800000 11.3289760000  2.7302670000
224      13   3  0.05999999999999999778 14.4952540000 10.6853790000  1.3365720000
225      13   3  0.05999999999999999778 15.2613620000 10.7320950000  2.9277560000
226      13   3  0.05999999999999999778 14.5086110000 14.3954270000  0.7382690000
227      13   3  0.05999999999999999778 14.1097240000 12.8237210000  0.0002330000
228      13   3  0.05999999999999999778 13.1482720000 13.4441470000  1.3656740000
229      13   3  0.05999999999999999778 16.9086730000 13.6465000000  1.2068140000
230      13   3  0.05999999999999999778 17.2137480000 12.0968950000  2.0270830000
231      13   3  0.05999999999999999778 16.5252990000 12.1079110000  0.3998820000
232      13   3  0.02999999999999999889 15.6232280000 13.9430740000  4.9860310000
233      13   3  0.02999999999999999889 15.5316160000 12.1989610000  4.6435670000
234      13   3  0.02999999999999999889 16.8962050000 13.1692030000  4.0122410000
235      14   1 -0.40000000000000002220 56.5527460000 26.3093670000 51.6809830000
236      14   2  0.20000000000000001110 56.8684670000 27.3290790000 50.7066390000
237      14   2 -0.17999999999999999334 58.3713760000 27.6554440000 50.7185270000
238      14   2 -0.17999999999999999334 56.4793280000 26.6777980000 49.3752200000
239      14   2 -0.17999999999999999334 56.0312320000 28.5964810000 50.9429860000
240      14   2  0.11000000000000000056 56.7932490000 26.5953480000 53.0477940000
241      14   3  0.05999999999999999778 58.9587890000 26.7352160000 50.6215090000
242      14   3  0.05999999999999999778 58.6202880000 28.3161950000 49.8805220000
243      14   3  0.05999999999999999778 58.6736200000 28.1657020000 51.6399190000
244      14   3  0.05999999999999999778 55.4151340000 26.4194280000 49.3786600000
245      14   3  0.05999999999999999778 56.6740560000 27.3587860000 48.5379530000
246      14   3  0.05999999999999999778 57.0546200000 25.7585840000 49.2222550000
247      14   3  0.05999999999999999778 54.9674360000 28.3412730000 51.0055600000
248      14   3  0.05999999999999999778 56.3209380000 29.1145340000 51.8642150000
249      14   3  0.05999999999999999778 56.1711630000 29.3008480000 50.1135800000
250      14   3  0.02999999999999999889 56.4913500000 25.7008740000 53.5995500000
251      14   3  0.02999999999999999889 57.8550960000 26.7915100000 53.2555790000
252      14   3  0.02999999999999999889 56.1968860000 27.4459480000 53.4108120000
253      15   1 -0.40000000000000002220 11.9995790000 20.5484330000  6.1095770000
254      15   2  0.20000000000000001110 11.3967980000 19.2835790000  6.4640310000
255      15   2 -0.17999999999999999334 10.7425940000 19.3557850000  7.8540660000
256      15   2 -0.17999999999999999334 10.3261440000 19.0880730000  5.3852580000
257      15   2 -0.17999999999999999334 12.4272980000 18.1445350000  6.4025650000
258      15   2  0.11000000000000000056 13.0552630000 21.0347450000  6.9200290000
259      15   3  0.05999999999999999778 10.0641100000 20.2148540000  7.9083440000
260      15   3  0.05999999999999999778 10.1651550000 18.4446060000  8.0467270000
261      15   3  0.05999999999999999778 11.4860810000 19.4484930000  8.6536330000
262      15   3  0.05999999999999999778 10.7898930000 19.0657050000  4.3934350000
263      15   3  0.05999999999999999778  9.7836650000 18.1479590000  5.5420490000
264      15   3  0.05999999999999999778  9.6097670000 19.9160270000  5.4099730000
265      15   3  0.05999999999999999778 12.9388420000 18.1486830000  5.4335380000
266      15   3  0.05999999999999999778 13.1796260000 18.2277660000  7.1950590000
267      15   3  0.05999999999999999778 11.9267760000 17.1762120000  6.5268790000
268      15   3  0.02999999999999999889 13.3562080000 21.9896180000  6.4803550000
269      15   3  0.02999999999999999889 12.7401730000 21.2127590000  7.9583930000
270      15   3  0.02999999999999999889 13.9268710000 20.3630020000  6.9231610000
271      16   1 -0.40000000000000002220 43.6549060000 36.7882610000 31.4382250000
272      16   2  0.20000000000000001110 42.7865260000 37.0953490000 30.3244700000
273      16   2 -0.17999999999999999334 42.5086700000 35.8399770000 29.4805320000
274      16   2 -0.17999999999999999334 41.4978360000 37.5724690000 31.0026350000
275      16   2 -0.17999999999999999334 43.3776430000 38.2183240000 29.4569240000
276      16   2  0.11000000000000000056 44.9599630000 36.3141370000 31.1556750000
277      16   3  0.05999999999999999778 42.1560040000 35.0239550000 30.1216410000
278      16   3  0.05999999999999999778 41.7367110000 36.0520360000 28.7322590000
279      16   3  0.05999999999999999778 43.4014480000 35.4999180000 28.9438900000
280      16   3  0.05999999999999999778 41.7022240000 38.4491780000 31.6262390000
281      16   3  0.05999999999999999778 40.7414780000 37.8402250000 30.2550310000
282      16   3  0.05999999999999999778 41.0940300000 36.7821840000 31.6442770000
283      16   3  0.05999999999999999778 43.6394390000 39.0804970000 30.0804850000
284      16   3  0.05999999999999999778 44.2741430000 37.8922840000 28.9175200000
285      16   3  0.05999999999999999778 42.6443350000 38.5415500000 28.7076510000
286      16   3  0.02999999999999999889 45.4349720000 36.1454230000 32.1260180000
287      16   3  0.02999999999999999889 44.9512350000 35.3642630000 30.6017500000
288      16   3  0.02999999999999999889 45.5615770000 37.0463740000 30.5963540000
289      17   1 -0.40000000000000002220 50.4789080000 55.8201710000 34.2525630000
290      17   2  0.20000000000000001110 50.7417350000 55.6308930000 32.8440410000
291      17   2 -0.17999999999999999334 51.4741730000 54.3017560000 32.5943930000
292      17   2 -0.17999999999999999334 49.3401050000 55.5863970000 32.2261990000
293      17   2 -0.17999999999999999334 51.5392460000 56.8119910000 32.2677490000
294      17   2  0.11000000000000000056 51.5865530000 55.9110570000 35.1315760000
295      17   3  0.05999999999999999778 50.9332710000 53.4766360000 33.0717700000
296      17   3  0.05999999999999999778 51.5347560000 54.1009540000 31.5188430000
297      17   3  0.05999999999999999778 52.4983600000 54.3177580000 32.9835720000
298      17   3  0.05999999999999999778 48.8086510000 56.5221320000 32.4292540000
299      17   3  0.05999999999999999778 49.3983830000 55.4425090000 31.1405740000
300      17   3  0.05999999999999999778 48.7624290000 54.7632020000 32.6597360000
301      17   3  0.05999999999999999778 51.0457370000 57.7585880000 32.5149530000
302      17   3  0.05999999999999999778 52.5649760000 56.8419590000 32.6523930000
303      17   3  0.05999999999999999778 51.6015940000 56.7277080000 31.1756710000
304      17   3  0.02999999999999999889 51.1660450000 56.0475550000 36.1316780000
305      17   3  0.02999999999999999889 52.1985840000 54.9974990000 35.1322520000
306      17   3  0.02999999999999999889 52.2333550000 56.7721650000 34.9055440000
307      18   1 -0.40000000000000002220 29.5686630000  4.7928510000 24.3497570000
308      18   2  0.20000000000000001110 30.1010410000  5.1843020000 23.0643860000
309      18   2 -0.17999999999999999334 31.2372420000  4.2434410000 22.6293920000
310      18   2 -0.17999999999999999334 28.9004120000  5.0334350000 22.1241700000
311      18   2 -0.17999999999999999334 30.5784310000  6.6453780000 23.0864180000
312      18   2  0.11000000000000000056 30.4371480000  4.8235630000 25.4689490000
313      18   3  0.05999999999999999778 30.9068780000  3.1999710000 22.6869910000
314      18   3  0.05999999999999999778 31.5297140000  4.4584440000 21.5954510000
315      18   3  0.05999999999999999778 32.1297070000  4.3608890000 23.2542040000
316      18   3  0.05999999999999999778 28.0812750000  5.6823890000 22.4515040000
317      18   3  0.05999999999999999778 29.1748340000  5.3029550000 21.0971680000
318      18   3  0.05999999999999999778 28.5420620000  3.9986270000 22.1325780000
319      18   3  0.05999999999999999778 29.7843910000  7.2974030000 23.4673020000
320      18   3  0.05999999999999999778 31.4687760000  6.7774340000 23.7115720000
321      18   3  0.05999999999999999778 30.8393660000  6.9720640000 22.0721130000
322      18   3  0.02999999999999999889 29.8391920000  4.4924110000 26.3224410000
323      18   3  0.02999999999999999889 31.2920780000  4.1412280000 25.3563140000
324      18   3  0.02999999999999999889 30.8151010000  5.8351840000 25.6804320000
325      19   1 -0.40000000000000002220 51.4133070000  3.3644430000 55.4906630000
326      19   2  0.20000000000000001110 50.5468470000  4.4064560000 54.9883760000
327      19   2 -0.17999999999999999334 50.0444460000  4.0705980000 53.5740970000
328      19   2 -0.17999999999999999334 49.3781680000  4.4021610000 55.9795600000
329      19   2 -0.17999999999999999334 51.2552680000  5.7705980000 55.0080140000
330      19   2  0.11000000000000000056 52.6179420000  3.1038230000 54.7915690000
331      19   3  0.05999999999999999778 49.6061150000  3.0661730000 53.5572800000
332      19   3  0.05999999999999999778 49.2769570000  4.7895380000 53.2660600000
333      19   3  0.05999999999999999778 50.8494010000  4.1114680000 52.8317660000