Generated by pymatgen.io.lammps.data.LammpsData

16314  atoms
15669  bonds
28156  angles
28971  dihedrals

   17  atom types
   18  bond types
   29  angle types
   27  dihedral types

-0.2500000000 60.2500000000  xlo xhi
-0.2500000000 60.2500000000  ylo yhi
-0.2500000000 60.2500000000  zlo zhi

Masses

1   18.998403
2   15.999400
3   12.010700
4   12.010700
5    1.007940
6   14.010000
7   32.060000
8   16.000000
9   12.010000
10  19.000000
11  16.000000
12  12.010000
13  12.010000
14   1.008000
15  32.060000
16  32.060000
17   6.941000

Pair Coeffs

1     0.0610  2.940000
2     0.1400  2.900000
3     0.0660  3.500000
4     0.0660  3.500000
5     0.0300  2.500000
6       0.17  3.249999
7       0.25  3.549340
8       0.21  2.959566
9      0.066  3.499450
10     0.053  2.948875
11      0.14  2.900000
12     0.066  3.500000
13     0.066  3.500000
14      0.03  2.500000
15  0.344001  3.590322
16  0.344001  3.590322
17  0.165057  1.506000

Bond Coeffs

1   367.00  1.332
2   320.00  1.410
3   320.00  1.410
4   268.00  1.529
5   340.00  1.090
6   268.00  1.529
7   340.00  1.090
8   441.80  1.323
9   235.40  1.818
10  637.10  1.442
11  372.00  1.570
12  320.00  1.410
13  320.00  1.380
14  268.00  1.529
15  340.00  1.090
16  340.00  1.090
17  157.87  2.133
18  154.36  2.117


Angle Coeffs

1    60.00  109.50
2    60.00  109.50
3    50.00  109.50
4    35.00  109.50
5    37.50  110.70
6    33.00  107.80
7    50.00  109.50
8    35.00  109.50
9    37.50  110.70
10   33.00  107.80
11   77.00  109.10
12   50.00  109.50
13   93.30  107.10
14   82.90  111.80
15  104.00  102.60
16  115.80  118.50
17   94.30  113.60
18   97.50  100.20
19   80.20  125.60
20   60.00  109.50
21   50.00  109.50
22   35.00  109.50
23   37.50  110.70
24   33.00  107.80
25   92.60  111.55
26   35.00  109.50
27   33.00  109.50
28   73.56  112.74
29   73.56  112.74


Dihedral Coeffs

1 3 0.062500000 1 0.000000000 -0.011000000 2 180.000000000 0.280500000 3 0.000000000
2 3 0.062500000 1 0.000000000 -0.011000000 2 180.000000000 0.280500000 3 0.000000000
3 1 0.370500000 3 0.000000000
4 1 0.370500000 3 0.000000000
5 3 0.062500000 1 0.000000000 -0.011000000 2 180.000000000 0.280500000 3 0.000000000
6 1 0.370500000 3 0.000000000
7 3 1.119000000 1 0.000000000 -1.163500000 2 180.000000000 -0.341500000 3 0.000000000
8 1 0.234000000 3 0.000000000
9 1 0.150000000 3 0.000000000
10 2 0.518500000 1 0.000000000 -0.728500000 2 180.000000000
11 2 0.518500000 1 0.000000000 -0.728500000 2 180.000000000
12 1 0.032000000 3 0.000000000
13 1 0.173400000 3 0.000000000
14 1 0.158000000 3 0.000000000
15 1 -0.001800000 3 0.000000000
16 3 3.916460000 1 0.000000000 -1.245000000 2 180.000000000 -0.381800000 3 0.000000000
17 3 0.062500000 1 0.000000000 -0.011000000 2 180.000000000 0.280500000 3 0.000000000
18 3 0.062500000 1 0.000000000 -0.011000000 2 180.000000000 0.280500000 3 0.000000000
19 1 0.370500000 3 0.000000000
20 1 0.370500000 3 0.000000000
21 3 -0.533500000 1 0.000000000 -0.783500000 2 180.000000000 0.337500000 3 0.000000000
22 1 0.370500000 3 0.000000000
23 3 1.119000000 1 0.000000000 -1.163500000 2 180.000000000 -0.341500000 3 0.000000000
24 1 0.234000000 3 0.000000000
25 1 0.150000000 3 0.000000000
26 4 5.431700000 1 0.000000000 -3.590000000 2 180.000000000 1.055600000 3 0.000000000 0.058320000 4 180.000000000
27 4 5.431700000 1 0.000000000 -3.590000000 2 180.000000000 1.055600000 3 0.000000000 0.058320000 4 180.000000000


Atoms

1         1   1 -0.20569999999999999396 50.4170710000  3.2388700000 19.5473450000
2         1   1 -0.20569999999999999396 50.0468920000  2.7881970000 17.4462330000
3         1   1 -0.20569999999999999396 51.0949140000  1.3379040000 18.7029720000
4         1   1 -0.20569999999999999396 43.4537260000  1.0580820000 16.3874150000
5         1   1 -0.20569999999999999396 42.7012380000  1.5572720000 18.3790330000
6         1   1 -0.20569999999999999396 43.9170010000  2.9964720000 17.2714340000
7         1   2 -0.42249999999999998668 47.7036310000  2.4538000000 19.2696220000
8         1   2 -0.42249999999999998668 46.1190770000  0.9796250000 17.3582340000
9         1   3  0.14000000000000001332 47.1521110000  3.1161830000 18.1261440000
10        1   3  0.14000000000000001332 46.7803850000  2.1891250000 16.9687120000
11        1   4  0.14230000000000000981 48.7743020000  1.5635750000 19.0714210000
12        1   4  0.14230000000000000981 45.0050330000  1.0744620000 18.2105470000
13        1   3  0.53229999999999999538 50.0883610000  2.2467170000 18.6961450000
14        1   3  0.53229999999999999538 43.7660680000  1.6711650000 17.5465880000
15        1   5  0.02999999999999999889 46.2700470000  3.6279860000 18.5197380000
16        1   5  0.02999999999999999889 47.8371200000  3.8836580000 17.7425880000
17        1   5  0.02999999999999999889 46.1734370000  2.7614520000 16.2540990000
18        1   5  0.02999999999999999889 47.6724150000  1.8424680000 16.4394490000
19        1   5  0.08250000000000000389 48.5627430000  0.8008830000 18.3125340000
20        1   5  0.08250000000000000389 48.9393520000  1.0659310000 20.0309610000
21        1   5  0.08250000000000000389 44.7504590000  0.0506030000 18.4950770000
22        1   5  0.08250000000000000389 45.2101740000  1.6514560000 19.1210410000
23        2   1 -0.20569999999999999396 40.2619190000  4.6697970000 54.5424850000
24        2   1 -0.20569999999999999396 38.2632290000  4.5205910000 53.6835420000
25        2   1 -0.20569999999999999396 39.1490240000  2.7918920000 54.6875660000
26        2   1 -0.20569999999999999396 33.6049920000  7.7380750000 57.6247150000
27        2   1 -0.20569999999999999396 35.0057080000  8.6874280000 59.0098870000
28        2   1 -0.20569999999999999396 35.3051770000  8.8632780000 56.8522150000
29        2   2 -0.42249999999999998668 38.4383120000  5.9464110000 56.3034320000
30        2   2 -0.42249999999999998668 35.5942680000  5.8904090000 56.7990910000
31        2   3  0.14000000000000001332 37.5548740000  6.7656160000 55.5295400000
32        2   3  0.14000000000000001332 36.0973680000  6.3042020000 55.5233130000
33        2   4  0.14230000000000000981 38.4281800000  4.5582310000 56.0776590000
34        2   4  0.14230000000000000981 35.7696870000  6.7525250000 57.8956810000
35        2   3  0.53229999999999999538 39.0371790000  4.1424200000 54.7395670000
36        2   3  0.53229999999999999538 34.9076080000  8.0116570000 57.8379180000
37        2   5  0.02999999999999999889 37.6525040000  7.7561230000 55.9814880000
38        2   5  0.02999999999999999889 37.8935370000  6.8416250000 54.4879550000
39        2   5  0.02999999999999999889 35.4855110000  7.1110340000 55.0975550000
40        2   5  0.02999999999999999889 35.9659870000  5.4222680000 54.8901140000
41        2   5  0.08250000000000000389 37.4246240000  4.1209490000 56.1411060000
42        2   5  0.08250000000000000389 39.0520620000  4.1170390000 56.8597900000
43        2   5  0.08250000000000000389 35.4532680000  6.1916380000 58.7784830000
44        2   5  0.08250000000000000389 36.8127270000  7.0644090000 58.0327980000
45        3   1 -0.20569999999999999396  5.5248560000 45.1871910000 12.8931960000
46        3   1 -0.20569999999999999396  7.2326590000 46.0094820000 13.9711840000
47        3   1 -0.20569999999999999396  7.4440420000 45.4337410000 11.8723900000
48        3   1 -0.20569999999999999396  6.6310560000 52.8348600000 14.7690000000
49        3   1 -0.20569999999999999396  4.5798950000 53.0310540000 14.0367290000
50        3   1 -0.20569999999999999396  5.0678900000 51.5299890000 15.5482910000
51        3   2 -0.42249999999999998668  5.1972360000 48.0012050000 13.0670080000
52        3   2 -0.42249999999999998668  6.8869670000 50.2975170000 13.5243550000
53        3   3  0.14000000000000001332  5.5067200000 48.4146080000 14.4025920000
54        3   3  0.14000000000000001332  6.7580830000 49.2838430000 14.5282470000
55        3   4  0.14230000000000000981  6.2147280000 47.4023940000 12.3026420000
56        3   4  0.14230000000000000981  5.7918390000 51.1480080000 13.2922200000
57        3   3  0.53229999999999999538  6.5947710000 45.9973170000 12.7669610000
58        3   3  0.53229999999999999538  5.5285310000 52.1413230000 14.4217870000
59        3   5  0.02999999999999999889  4.6146830000 48.9599580000 14.7215850000
60        3   5  0.02999999999999999889  5.6229360000 47.5501670000 15.0693790000
61        3   5  0.02999999999999999889  6.7716480000 49.7192490000 15.5366380000
62        3   5  0.02999999999999999889  7.6664740000 48.6853410000 14.4158610000
63        3   5  0.08250000000000000389  7.1311540000 48.0032020000 12.2631520000
64        3   5  0.08250000000000000389  5.8172060000 47.3037190000 11.2888140000
65        3   5  0.08250000000000000389  6.0439690000 51.7351500000 12.4057950000
66        3   5  0.08250000000000000389  4.8594500000 50.6027500000 13.0989660000
67        4   1 -0.20569999999999999396 52.4397680000 33.6594990000 35.5334970000
68        4   1 -0.20569999999999999396 51.5466620000 35.6226750000 35.8546060000
69        4   1 -0.20569999999999999396 53.5417730000 35.1922750000 36.6390700000
70        4   1 -0.20569999999999999396 51.7555440000 39.4314040000 30.1070700000
71        4   1 -0.20569999999999999396 52.4483300000 37.8646210000 28.7479470000
72        4   1 -0.20569999999999999396 50.7453090000 37.4997270000 30.0680700000
73        4   2 -0.42249999999999998668 52.6768770000 35.1496930000 33.1294740000
74        4   2 -0.42249999999999998668 52.6159370000 37.9312170000 32.3569370000
75        4   3  0.14000000000000001332 51.4272970000 35.7993190000 32.8706230000
76        4   3  0.14000000000000001332 51.4691020000 37.3246880000 32.9642570000
77        4   4  0.14230000000000000981 53.3732110000 35.4890660000 34.3033850000
78        4   4  0.14230000000000000981 52.9397410000 37.5704760000 31.0372620000
79        4   3  0.53229999999999999538 52.7164360000 34.9777570000 35.5845860000
80        4   3  0.53229999999999999538 51.9632360000 38.1045020000 29.9917080000
81        4   5  0.02999999999999999889 51.1669200000 35.4737320000 31.8601320000
82        4   5  0.02999999999999999889 50.6430600000 35.4368890000 33.5481070000
83        4   5  0.02999999999999999889 50.5375210000 37.7188230000 32.5359700000
84        4   5  0.02999999999999999889 51.5178360000 37.6543120000 34.0058820000
85        4   5  0.08250000000000000389 53.5284980000 36.5690290000 34.4126160000
86        4   5  0.08250000000000000389 54.3489780000 35.0008670000 34.2316320000
87        4   5  0.08250000000000000389 53.9106450000 38.0252320000 30.8260870000
88        4   5  0.08250000000000000389 53.0223000000 36.4852330000 30.8978450000
89        5   1 -0.20569999999999999396 24.8053640000 32.5757100000 29.7973600000
90        5   1 -0.20569999999999999396 22.8849710000 31.8449830000 30.5273870000
91        5   1 -0.20569999999999999396 23.3120100000 31.8303870000 28.3829700000
92        5   1 -0.20569999999999999396 23.5093000000 25.5894770000 33.3669420000
93        5   1 -0.20569999999999999396 25.6930520000 25.4775980000 33.3407500000
94        5   1 -0.20569999999999999396 24.6930880000 27.2406870000 34.1579050000
95        5   2 -0.42249999999999998668 25.1865920000 29.9670660000 30.8489590000
96        5   2 -0.42249999999999998668 23.5416090000 27.6674020000 31.4346060000
97        5   3  0.14000000000000001332 24.4954230000 29.8741510000 32.0996060000
98        5   3  0.14000000000000001332 23.3067750000 28.9127070000 32.1024480000
99        5   4  0.14230000000000000981 24.4320870000 30.2134070000 29.6878560000
100       5   4  0.14230000000000000981 24.6910420000 26.9341290000 31.7775920000
101       5   3  0.53229999999999999538 23.8647440000 31.6295710000 29.6049750000
102       5   3  0.53229999999999999538 24.6333640000 26.3065800000 33.1685580000
103       5   5  0.02999999999999999889 25.2670700000 29.5485190000 32.8020440000
104       5   5  0.02999999999999999889 24.1394090000 30.8584060000 32.4310670000
105       5   5  0.02999999999999999889 22.9993210000 28.7528050000 33.1448110000
106       5   5  0.02999999999999999889 22.4529600000 29.3401930000 31.5692830000
107       5   5  0.08250000000000000389 23.6009360000 29.5097970000 29.5594530000
108       5   5  0.08250000000000000389 25.1206050000 30.0988000000 28.8461820000
109       5   5  0.08250000000000000389 24.7534800000 26.1116770000 31.0608430000
110       5   5  0.08250000000000000389 25.6122310000 27.5268270000 31.7133780000
111       6   1 -0.20569999999999999396  5.8993800000  4.8867090000 25.5085880000
112       6   1 -0.20569999999999999396  6.3778590000  6.5951500000 24.2408740000
113       6   1 -0.20569999999999999396  4.4496670000  6.5074100000 25.2682370000
114       6   1 -0.20569999999999999396 10.8185760000 10.8533980000 27.3604210000
115       6   1 -0.20569999999999999396 11.2785020000  9.5818120000 29.0790000000
116       6   1 -0.20569999999999999396 11.3795000000  8.7691220000 27.0528000000
117       6   2 -0.42249999999999998668  7.6515190000  6.5974700000 26.9436920000
118       6   2 -0.42249999999999998668  8.4612570000  9.3665810000 26.8264160000
119       6   3  0.14000000000000001332  8.7103660000  7.0030600000 26.0691600000
120       6   3  0.14000000000000001332  8.7163610000  8.4917340000 25.7211960000
121       6   4  0.14230000000000000981  6.3355130000  6.9663020000 26.6117120000
122       6   4  0.14230000000000000981  9.2157820000  9.1943360000 28.0001060000
123       6   3  0.53229999999999999538  5.7691020000  6.2241290000 25.4023220000
124       6   3  0.53229999999999999538 10.6786570000  9.6103520000 27.8627890000
125       6   5  0.02999999999999999889  9.6183840000  6.7209720000 26.6084420000
126       6   5  0.02999999999999999889  8.6913720000  6.4330780000 25.1310070000
127       6   5  0.02999999999999999889  9.6764230000  8.7265830000 25.2418800000
128       6   5  0.02999999999999999889  7.9241340000  8.7325710000 25.0067850000
129       6   5  0.08250000000000000389  6.2250000000  8.0417800000 26.4286800000
130       6   5  0.08250000000000000389  5.7157770000  6.6920220000 27.4697950000
131       6   5  0.08250000000000000389  8.7681590000  9.8513220000 28.7498110000
132       6   5  0.08250000000000000389  9.1925100000  8.1640720000 28.3769620000
133       7   1 -0.20569999999999999396  1.7338620000 29.9563600000 22.4961360000
134       7   1 -0.20569999999999999396  1.5097060000 31.0882490000 20.6458950000
135       7   1 -0.20569999999999999396  0.0000000000 31.2611790000 22.2181480000
136       7   1 -0.20569999999999999396  5.7758860000 36.5070090000 20.5010940000
137       7   1 -0.20569999999999999396  6.9290550000 36.0140240000 22.2925030000
138       7   1 -0.20569999999999999396  6.6050820000 34.5053880000 20.7448550000
139       7   2 -0.42249999999999998668  3.4689210000 32.1998120000 22.6088890000
140       7   2 -0.42249999999999998668  3.6830600000 34.7685860000 21.3077550000
141       7   3  0.14000000000000001332  4.1441280000 32.3176230000 21.3516370000
142       7   3  0.14000000000000001332  3.7749130000 33.5611290000 20.5425380000
143       7   4  0.14230000000000000981  2.0680210000 32.3234540000 22.6265450000
144       7   4  0.14230000000000000981  4.7557050000 35.1053210000 22.1518920000
145       7   3  0.53229999999999999538  1.3325200000 31.1420220000 21.9960490000
146       7   3  0.53229999999999999538  6.0167880000 35.5393010000 21.4080780000
147       7   5  0.02999999999999999889  5.2031600000 32.3239990000 21.6223830000
148       7   5  0.02999999999999999889  3.9682550000 31.4356920000 20.7218460000
149       7   5  0.02999999999999999889  4.5001120000 33.6636960000 19.7238920000
150       7   5  0.02999999999999999889  2.7832700000 33.4585730000 20.0929430000
151       7   5  0.08250000000000000389  1.7124090000 33.2396410000 22.1402240000
152       7   5  0.08250000000000000389  1.7771270000 32.3512060000 23.6802140000
153       7   5  0.08250000000000000389  4.4230940000 35.9639580000 22.7402500000
154       7   5  0.08250000000000000389  5.0315100000 34.2947830000 22.8381610000
155       8   1 -0.20569999999999999396 41.5002070000  3.8983650000 20.7308180000
156       8   1 -0.20569999999999999396 39.7424960000  4.5880810000 21.8214840000
157       8   1 -0.20569999999999999396 40.7451240000  5.9269260000 20.4131770000
158       8   1 -0.20569999999999999396 33.9604750000  1.8850660000 19.2049660000
159       8   1 -0.20569999999999999396 34.9009710000  0.4711700000 17.8271630000
160       8   1 -0.20569999999999999396 35.5311670000  0.5517740000 19.9182180000
161       8   2 -0.42249999999999998668 39.1958280000  2.7920260000 19.4970960000
162       8   2 -0.42249999999999998668 36.3689080000  3.3726430000 19.4032160000
163       8   3  0.14000000000000001332 38.3236210000  2.2984770000 20.5199020000
164       8   3  0.14000000000000001332 36.9997610000  3.0521780000 20.6487170000
165       8   4  0.14230000000000000981 39.4813410000  4.1689820000 19.4727450000
166       8   4  0.14230000000000000981 36.1899240000  2.3428910000 18.4629490000
167       8   3  0.53229999999999999538 40.3785850000  4.6372990000 20.6172540000
168       8   3  0.53229999999999999538 35.1333860000  1.3154590000 18.8630000000
169       8   5  0.02999999999999999889 38.1570900000  1.2546760000 20.2412600000
170       8   5  0.02999999999999999889 38.8172680000  2.3051240000 21.5005340000
171       8   5  0.02999999999999999889 36.3324200000  2.4628330000 21.2921020000
172       8   5  0.02999999999999999889 37.1449190000  4.0244650000 21.1278780000
173       8   5  0.08250000000000000389 38.5801760000  4.7936950000 19.4742880000
174       8   5  0.08250000000000000389 40.0312140000  4.3505180000 18.5452260000
175       8   5  0.08250000000000000389 35.8347630000  2.8233930000 17.5480540000
176       8   5  0.08250000000000000389 37.1177760000  1.8019450000 18.2382900000
177       9   1 -0.20569999999999999396 17.3313800000 11.6318460000 34.7450130000
178       9   1 -0.20569999999999999396 16.6761150000  9.9711040000 33.4930640000
179       9   1 -0.20569999999999999396 17.0439070000  9.6493560000 35.6243320000
180       9   1 -0.20569999999999999396  9.9502480000 10.4445300000 32.0360800000
181       9   1 -0.20569999999999999396  9.6167120000 12.4425240000 32.8599420000
182       9   1 -0.20569999999999999396 11.2770310000 12.0843840000 31.4847220000
183       9   2 -0.42249999999999998668 14.5402600000 11.8971720000 34.3028960000
184       9   2 -0.42249999999999998668 12.3561230000 10.1796280000 33.5174070000
185       9   3  0.14000000000000001332 14.2734500000 11.6576570000 32.9165650000
186       9   3  0.14000000000000001332 13.4611870000 10.3942230000 32.6315590000
187       9   4  0.14230000000000000981 15.0908210000 10.8514340000 35.0654140000
188       9   4  0.14230000000000000981 11.4524670000 11.2367900000 33.7231760000
189       9   3  0.53229999999999999538 16.5468030000 10.5359190000 34.7265410000
190       9   3  0.53229999999999999538 10.5701710000 11.5416940000 32.5146570000
191       9   5  0.02999999999999999889 13.7351470000 12.5529330000 32.5946890000
192       9   5  0.02999999999999999889 15.2038890000 11.6036890000 32.3362720000
193       9   5  0.02999999999999999889 13.1302100000 10.4298650000 31.5847540000
194       9   5  0.02999999999999999889 14.0736700000  9.4963460000 32.7527630000
195       9   5  0.08250000000000000389 14.5182900000  9.9192160000 34.9909610000
196       9   5  0.08250000000000000389 15.0742940000 11.1899950000 36.1049870000
197       9   5  0.08250000000000000389 10.7872710000 10.9171490000 34.5290280000
198       9   5  0.08250000000000000389 11.9458130000 12.1695950000 34.0239900000
199      10   1 -0.20569999999999999396 12.1985140000 32.0087390000 35.4109520000
200      10   1 -0.20569999999999999396 14.0448630000 30.9259010000 34.9946990000
201      10   1 -0.20569999999999999396 12.2861090000 29.8438510000 35.7137610000
202      10   1 -0.20569999999999999396 15.0077520000 30.1478700000 28.2085570000
203      10   1 -0.20569999999999999396 13.3756190000 31.4384840000 27.5359260000
204      10   1 -0.20569999999999999396 14.7990010000 32.1562660000 29.0308940000
205      10   2 -0.42249999999999998668 12.4219490000 31.6766570000 32.6009670000
206      10   2 -0.42249999999999998668 13.8457950000 29.9369880000 30.7888900000
207      10   3  0.14000000000000001332 13.7648290000 31.9847460000 32.2108100000
208      10   3  0.14000000000000001332 14.5655240000 30.7942090000 31.6828190000
209      10   4  0.14230000000000000981 12.2143830000 30.5966500000 33.4776760000
210      10   4  0.14230000000000000981 13.1741050000 30.5222040000 29.7012870000
211      10   3  0.53229999999999999538 12.6866020000 30.8577350000 34.9070510000
212      10   3  0.53229999999999999538 14.1037870000 31.0609750000 28.6162310000
213      10   5  0.02999999999999999889 13.6448150000 32.7512920000 31.4408110000
214      10   5  0.02999999999999999889 14.3267820000 32.4333610000 33.0404640000
215      10   5  0.02999999999999999889 15.4807940000 31.1794360000 31.2132480000
216      10   5  0.02999999999999999889 14.8678820000 30.1302740000 32.4975460000
217      10   5  0.08250000000000000389 12.6840310000 29.6678970000 33.1324000000
218      10   5  0.08250000000000000389 11.1325280000 30.4450550000 33.5247480000
219      10   5  0.08250000000000000389 12.5813130000 29.7259690000 29.2444920000
220      10   5  0.08250000000000000389 12.4999010000 31.3343850000 30.0009800000
221      11   1 -0.20569999999999999396 55.2534170000 17.3432870000 56.1800070000
222      11   1 -0.20569999999999999396 57.0007730000 16.2269920000 56.8548700000
223      11   1 -0.20569999999999999396 56.2179930000 17.8655300000 58.0728780000
224      11   1 -0.20569999999999999396 55.2106730000 10.0392790000 59.3230600000
225      11   1 -0.20569999999999999396 53.1086360000 10.0862410000 58.7220520000
226      11   1 -0.20569999999999999396 54.6757100000 10.5642650000 57.2757030000
227      11   2 -0.42249999999999998668 54.3693460000 14.8690850000 57.2537680000
228      11   2 -0.42249999999999998668 55.4056260000 12.8567750000 59.0465690000
229      11   3  0.14000000000000001332 55.2168940000 13.8274650000 56.7566200000
230      11   3  0.14000000000000001332 56.0820340000 13.1470770000 57.8176910000
231      11   4  0.14230000000000000981 54.9474930000 15.8762860000 58.0471230000
232      11   4  0.14230000000000000981 54.1787800000 12.1728800000 58.9860500000
233      11   3  0.53229999999999999538 55.8538170000 16.8324130000 57.2733890000
234      11   3  0.53229999999999999538 54.3062990000 10.7066410000 58.5788510000
235      11   5  0.02999999999999999889 54.5209140000 13.1179070000 56.3016110000
236      11   5  0.02999999999999999889 55.8785120000 14.1982710000 55.9628100000
237      11   5  0.02999999999999999889 56.5118210000 12.2376740000 57.3762330000
238      11   5  0.02999999999999999889 56.9129640000 13.7904370000 58.1204320000
239      11   5  0.08250000000000000389 55.5211680000 15.4792210000 58.8930560000
240      11   5  0.08250000000000000389 54.1176600000 16.4725220000 58.4363360000
241      11   5  0.08250000000000000389 53.7716050000 12.1862790000 59.9999940000
242      11   5  0.08250000000000000389 53.4561730000 12.6483530000 58.3109430000
243      12   1 -0.20569999999999999396 51.2853380000 43.6922100000 40.6817520000
244      12   1 -0.20569999999999999396 53.0598690000 43.4584200000 41.9272210000
245      12   1 -0.20569999999999999396 52.3394800000 41.7758410000 40.7309500000
246      12   1 -0.20569999999999999396 58.5328350000 46.5452200000 39.0807270000
247      12   1 -0.20569999999999999396 57.4782600000 47.5623210000 37.4573510000
248      12   1 -0.20569999999999999396 56.7501230000 47.7241120000 39.5115650000
249      12   2 -0.42249999999999998668 53.4730650000 44.9201900000 39.3542970000
250      12   2 -0.42249999999999998668 56.3547540000 44.7637070000 39.4480360000
251      12   3  0.14000000000000001332 54.2070920000 45.6967390000 40.3075250000
252      12   3  0.14000000000000001332 55.6158750000 45.1811340000 40.6020540000
253      12   4  0.14230000000000000981 53.3893260000 43.5300670000 39.5509330000
254      12   4  0.14230000000000000981 56.4368630000 45.6444840000 38.3553260000
255      12   3  0.53229999999999999538 52.5057280000 43.1217580000 40.7285600000
256      12   3  0.53229999999999999538 57.3114730000 46.8697590000 38.6116210000
257      12   5  0.02999999999999999889 54.2378790000 46.6953980000 39.8640980000
258      12   5  0.02999999999999999889 53.6654090000 45.7732220000 41.2594180000
259      12   5  0.02999999999999999889 56.1549820000 45.9595240000 41.1589100000
260      12   5  0.02999999999999999889 55.5847590000 44.2875950000 41.2318370000
261      12   5  0.08250000000000000389 54.3690930000 43.0563510000 39.6851530000
262      12   5  0.08250000000000000389 52.9238330000 43.1216350000 38.6497630000
263      12   5  0.08250000000000000389 56.9077310000 45.0824780000 37.5450880000
264      12   5  0.08250000000000000389 55.4551900000 45.9967080000 38.0143540000
265      13   1 -0.20569999999999999396 21.9374520000 54.5856500000  0.9618260000
266      13   1 -0.20569999999999999396 23.5840920000 55.5198780000  2.0437720000
267      13   1 -0.20569999999999999396 23.1278000000 56.1489850000 -0.0000290000
268      13   1 -0.20569999999999999396 21.2595120000 59.9998340000  6.7459570000
269      13   1 -0.20569999999999999396 19.1343950000 59.5099730000  6.5850560000
270      13   1 -0.20569999999999999396 20.6115680000 57.9204470000  6.8449030000
271      13   2 -0.42249999999999998668 20.8495810000 56.4660030000  2.7885800000
272      13   2 -0.42249999999999998668 21.7821920000 58.7840990000  4.2356720000
273      13   3  0.14000000000000001332 21.5104650000 56.3116060000  4.0494760000
274      13   3  0.14000000000000001332 22.3755590000 57.5009840000  4.4669210000
275      13   4  0.14230000000000000981 21.6196190000 56.8486820000  1.6756020000
276      13   4  0.14230000000000000981 20.4785310000 59.0103830000  4.7108430000
277      13   3  0.53229999999999999538 22.5653150000 55.7599480000  1.1710380000
278      13   3  0.53229999999999999538 20.3827510000 59.1146430000  6.2313320000
279      13   5  0.02999999999999999889 20.6922240000 56.1523080000  4.7565830000
280      13   5  0.02999999999999999889 22.1388200000 55.4113830000  4.0612870000
281      13   5  0.02999999999999999889 22.6454670000 57.3726890000  5.5239480000
282      13   5  0.02999999999999999889 23.3049620000 57.5334160000  3.8914480000
283      13   5  0.08250000000000000389 22.2129890000 57.7530820000  1.8554280000
284      13   5  0.08250000000000000389 20.9103030000 57.0504870000  0.8682890000
285      13   5  0.08250000000000000389 20.1699250000 59.9774930000  4.3064760000
286      13   5  0.08250000000000000389 19.7634090000 58.2468100000  4.3798420000
287      14   1 -0.20569999999999999396 29.6834190000 22.0380590000 55.3133550000
288      14   1 -0.20569999999999999396 30.7421430000 22.1246910000 53.4090410000
289      14   1 -0.20569999999999999396 28.9196180000 20.9300040000 53.5885560000
290      14   1 -0.20569999999999999396 29.6330070000 28.1327760000 50.2063940000
291      14   1 -0.20569999999999999396 28.5887940000 29.1424200000 51.8410850000
292      14   1 -0.20569999999999999396 30.4939890000 28.1370820000 52.2094330000
293      14   2 -0.42249999999999998668 29.0666680000 24.5105290000 54.0632610000
294      14   2 -0.42249999999999998668 29.1450150000 25.6005270000 51.3905900000
295      14   3  0.14000000000000001332 30.2777810000 25.0766460000 53.5502460000
296      14   3  0.14000000000000001332 30.3497990000 25.1558610000 52.0251870000
297      14   4  0.14230000000000000981 28.6394370000 23.2734630000 53.5482250000
298      14   4  0.14230000000000000981 28.5441390000 26.7830280000 51.8566000000
299      14   3  0.53229999999999999538 29.5044520000 22.0898190000 53.9783460000
300      14   3  0.53229999999999999538 29.3249030000 28.0504730000 51.5161310000
301      14   5  0.02999999999999999889 30.3118500000 26.0730650000 53.9984440000
302      14   5  0.02999999999999999889 31.1569000000 24.5231360000 53.9054160000
303      14   5  0.02999999999999999889 31.2004390000 25.7967250000 51.7562620000
304      14   5  0.02999999999999999889 30.5291800000 24.1698440000 51.5874630000
305      14   5  0.08250000000000000389 28.5760000000 23.2637740000 52.4535800000
306      14   5  0.08250000000000000389 27.6405470000 23.1005890000 53.9580310000
307      14   5  0.08250000000000000389 27.5806560000 26.8572870000 51.3464620000
308      14   5  0.08250000000000000389 28.3686070000 26.7762560000 52.9397190000
309      15   1 -0.20569999999999999396 49.6706330000 45.5300210000 37.3191800000
310      15   1 -0.20569999999999999396 51.4859130000 46.0817610000 38.3939600000
311      15   1 -0.20569999999999999396 51.3020960000 44.0862590000 37.5191570000
312      15   1 -0.20569999999999999396 55.4640770000 50.2500370000 34.6013470000
313      15   1 -0.20569999999999999396 54.0467220000 50.5982000000 32.9728930000
314      15   1 -0.20569999999999999396 53.4168110000 50.8505330000 35.0503180000
315      15   2 -0.42249999999999998668 51.2526900000 47.1598540000 35.6171340000
316      15   2 -0.42249999999999998668 54.0236180000 47.9504260000 35.4317730000
317      15   3  0.14000000000000001332 51.7371000000 48.2744600000 36.3744090000
318      15   3  0.14000000000000001332 53.2507370000 48.2915250000 36.5886010000
319      15   4  0.14230000000000000981 51.6456900000 45.8674670000 36.0088040000
320      15   4  0.14230000000000000981 53.7503440000 48.6210980000 34.2267640000
321      15   3  0.53229999999999999538 51.0118330000 45.3953590000 37.3163230000
322      15   3  0.53229999999999999538 54.1810590000 50.0861540000 34.2217170000
323      15   5  0.02999999999999999889 51.4109940000 49.1443670000 35.7983780000