Generated by pymatgen.io.lammps.data.LammpsData

16370  atoms
15482  bonds
26281  angles
23107  dihedrals

   17  atom types
   15  bond types
   22  angle types
   18  dihedral types

-0.2500000000 60.2500000000  xlo xhi
-0.2500000000 60.2500000000  ylo yhi
-0.2500000000 60.2500000000  zlo zhi

Masses

1   14.01000
2   32.06000
3   16.00000
4   12.01000
5   19.00000
6   32.06500
7   15.99940
8   15.99940
9   12.01070
10   1.00794
11  16.00000
12  12.01000
13  12.01000
14   1.00800
15  32.06000
16  32.06000
17   6.94100

Pair Coeffs

1       0.17  3.249999
2       0.25  3.549340
3       0.21  2.959566
4      0.066  3.499450
5      0.053  2.948875
6     0.3950  3.560000
7     0.1400  2.900000
8     0.2800  2.700000
9     0.0660  3.500000
10    0.0300  2.500000
11      0.14  2.900000
12     0.066  3.500000
13     0.066  3.500000
14      0.03  2.500000
15  0.344001  3.590322
16  0.344001  3.590322
17  0.165057  1.506000

Bond Coeffs

1   441.80  1.323
2   235.40  1.818
3   637.10  1.442
4   372.00  1.570
5   295.00  1.710
6   700.00  1.530
7   320.00  1.410
8   340.00  1.090
9   320.00  1.410
10  320.00  1.380
11  268.00  1.529
12  340.00  1.090
13  340.00  1.090
14  157.87  2.133
15  154.36  2.117


Angle Coeffs

1    93.30  107.100
2    82.90  111.800
3   104.00  102.600
4   115.80  118.500
5    94.30  113.600
6    97.50  100.200
7    80.20  125.600
8   130.00  109.000
9   130.00  108.940
10  100.00  113.633
11   35.00  109.500
12   33.00  107.800
13   60.00  109.500
14   50.00  109.500
15   35.00  109.500
16   37.50  110.700
17   33.00  107.800
18   92.60  111.550
19   35.00  109.500
20   33.00  109.500
21   73.56  112.740
22   73.56  112.740


Dihedral Coeffs

1 1 0.173400000 3 0.000000000
2 1 0.158000000 3 0.000000000
3 1 -0.001800000 3 0.000000000
4 3 3.916460000 1 0.000000000 -1.245000000 2 180.000000000 -0.381800000 3 0.000000000
5 1 0.000000000 1 0.000000000
6 1 0.000000000 1 0.000000000
7 1 0.375000000 3 0.000000000
8 3 0.062500000 1 0.000000000 -0.011000000 2 180.000000000 0.280500000 3 0.000000000
9 3 0.062500000 1 0.000000000 -0.011000000 2 180.000000000 0.280500000 3 0.000000000
10 1 0.370500000 3 0.000000000
11 1 0.370500000 3 0.000000000
12 3 -0.533500000 1 0.000000000 -0.783500000 2 180.000000000 0.337500000 3 0.000000000
13 1 0.370500000 3 0.000000000
14 3 1.119000000 1 0.000000000 -1.163500000 2 180.000000000 -0.341500000 3 0.000000000
15 1 0.234000000 3 0.000000000
16 1 0.150000000 3 0.000000000
17 4 5.431700000 1 0.000000000 -3.590000000 2 180.000000000 1.055600000 3 0.000000000 0.058320000 4 180.000000000
18 4 5.431700000 1 0.000000000 -3.590000000 2 180.000000000 1.055600000 3 0.000000000 0.058320000 4 180.000000000


Atoms

1         1   1 -0.45929018789144054891  4.1583920000 57.5818220000 32.9826890000
2         1   2  0.70981210855949905536  2.7763020000 56.7360640000 32.8841560000
3         1   3 -0.36882393876130831201  1.8418560000 56.9830320000 33.9918560000
4         1   3 -0.36882393876130831201  2.2206950000 56.5543640000 31.5334480000
5         1   4  0.24356297842727905878  3.5599270000 55.0699540000 33.2991960000
6         1   5 -0.11134307585247044114  4.1526040000 55.0689040000 34.5054560000
7         1   5 -0.11134307585247044114  4.4673140000 54.6986830000 32.3798540000
8         1   5 -0.11134307585247044114  2.5858340000 54.1340680000 33.3175570000
9         1   2  0.70981210855949905536  4.3386960000 59.0708090000 32.4072310000
10        1   3 -0.36882393876130831201  5.4159470000 59.7385590000 33.1486700000
11        1   3 -0.36882393876130831201  3.0965110000 59.8001570000 32.1141730000
12        1   4  0.24356297842727905878  5.1217030000 58.8040600000 30.7060260000
13        1   5 -0.11134307585247044114  6.2730770000 58.1101340000 30.8001860000
14        1   5 -0.11134307585247044114  4.3026720000 58.1436560000 29.8737780000
15        1   5 -0.11134307585247044114  5.4083960000 60.0002180000 30.1452250000
16        2   1 -0.45929018789144054891 53.2916630000 49.8953760000 11.0089470000
17        2   2  0.70981210855949905536 52.1921910000 50.3697060000  9.9128790000
18        2   3 -0.36882393876130831201 51.7893030000 51.7779440000 10.0382970000
19        2   3 -0.36882393876130831201 52.3373270000 49.8059800000  8.5611120000
20        2   4  0.24356297842727905878 50.7586730000 49.4061230000 10.6736580000
21        2   5 -0.11134307585247044114 50.5075970000 49.7768000000 11.9408950000
22        2   5 -0.11134307585247044114 50.9783690000 48.0803210000 10.6545740000
23        2   5 -0.11134307585247044114 49.6475430000 49.6498170000  9.9449060000
24        2   2  0.70981210855949905536 54.8779030000 50.0556000000 10.8116860000
25        2   3 -0.36882393876130831201 55.5173090000 50.1063880000 12.1325460000
26        2   3 -0.36882393876130831201 55.3024210000 50.9922520000  9.7612960000
27        2   4  0.24356297842727905878 55.4235530000 48.3651300000 10.1613520000
28        2   5 -0.11134307585247044114 55.0740770000 47.3779720000 11.0095550000
29        2   5 -0.11134307585247044114 54.8906910000 48.0926260000  8.9607770000
30        2   5 -0.11134307585247044114 56.7692090000 48.3398190000 10.0346470000
31        3   1 -0.45929018789144054891 34.6099810000 29.8124980000 50.4057660000
32        3   2  0.70981210855949905536 36.2221510000 29.8411130000 50.5935970000
33        3   3 -0.36882393876130831201 36.8873570000 28.5733080000 50.2598980000
34        3   3 -0.36882393876130831201 36.8966150000 31.0971860000 50.2282130000
35        3   4  0.24356297842727905878 36.1788660000 29.8612890000 52.4803850000
36        3   5 -0.11134307585247044114 35.5573360000 28.7841380000 52.9900660000
37        3   5 -0.11134307585247044114 35.5768010000 30.9642370000 52.9572540000
38        3   5 -0.11134307585247044114 37.4508410000 29.8571940000 52.9355100000
39        3   2  0.70981210855949905536 33.8653660000 30.1325130000 49.0187260000
40        3   3 -0.36882393876130831201 32.5583380000 29.4633600000 49.0167500000
41        3   3 -0.36882393876130831201 34.7066780000 30.0894290000 47.8140720000
42        3   4  0.24356297842727905878 33.3874670000 31.9561380000 49.1747960000
43        3   5 -0.11134307585247044114 32.6276520000 32.1716000000 50.2667290000
44        3   5 -0.11134307585247044114 34.4639190000 32.7530320000 49.2508990000
45        3   5 -0.11134307585247044114 32.6677420000 32.3313310000 48.0937260000
46        4   1 -0.45929018789144054891 48.8375290000 45.9583260000 32.0006450000
47        4   2  0.70981210855949905536 47.6348060000 46.6874320000 32.8112330000
48        4   3 -0.36882393876130831201 46.3200620000 46.5741190000 32.1633220000
49        4   3 -0.36882393876130831201 47.6958920000 46.6025900000 34.2792910000
50        4   4  0.24356297842727905878 48.1977430000 48.4452920000 32.4171740000
51        4   5 -0.11134307585247044114 48.2332200000 48.6877010000 31.0956950000
52        4   5 -0.11134307585247044114 49.4111190000 48.7111080000 32.9304410000
53        4   5 -0.11134307585247044114 47.3183250000 49.3082600000 32.9712390000
54        4   2  0.70981210855949905536 49.2200130000 44.4074960000 32.1720330000
55        4   3 -0.36882393876130831201 49.8801150000 43.9434750000 30.9452320000
56        4   3 -0.36882393876130831201 48.2029400000 43.5631270000 32.8150390000
57        4   4  0.24356297842727905878 50.6449740000 44.4302280000 33.4159480000
58        4   5 -0.11134307585247044114 51.6619760000 45.2003880000 32.9816400000
59        4   5 -0.11134307585247044114 50.2573000000 44.8877060000 34.6159500000
60        4   5 -0.11134307585247044114 51.1222340000 43.1765200000 33.5830570000
61        5   1 -0.45929018789144054891 52.0004060000 41.5031200000 19.4850000000
62        5   2  0.70981210855949905536 51.2088040000 42.8998310000 19.2446830000
63        5   3 -0.36882393876130831201 51.9281070000 44.0875490000 19.7275000000
64        5   3 -0.36882393876130831201 50.4512250000 43.0092790000 17.9876150000
65        5   4  0.24356297842727905878 49.8936520000 42.5851870000 20.5613560000
66        5   5 -0.11134307585247044114 50.4231170000 42.4250860000 21.7862490000
67        5   5 -0.11134307585247044114 49.1466350000 41.5046730000 20.2770370000
68        5   5 -0.11134307585247044114 49.0700880000 43.6552030000 20.6047600000
69        5   2  0.70981210855949905536 53.0785940000 40.8982350000 18.4591500000
70        5   3 -0.36882393876130831201 53.9978970000 40.0238140000 19.1983130000
71        5   3 -0.36882393876130831201 53.6115440000 41.8367910000 17.4611870000
72        5   4  0.24356297842727905878 52.0795590000 39.6622270000 17.4332030000
73        5   5 -0.11134307585247044114 51.4908500000 38.7377060000 18.2172600000
74        5   5 -0.11134307585247044114 51.1246850000 40.2655880000 16.7094960000
75        5   5 -0.11134307585247044114 52.9009910000 39.0122970000 16.5786110000
76        6   1 -0.45929018789144054891 13.7172110000 26.7391710000 38.1874280000
77        6   2  0.70981210855949905536 12.9506760000 25.4451980000 37.5764880000
78        6   3 -0.36882393876130831201 11.5381780000 25.6851310000 37.2471490000
79        6   3 -0.36882393876130831201 13.7386760000 24.5886720000 36.6756300000
80        6   4  0.24356297842727905878 12.8933680000 24.4905110000 39.2036140000
81        6   5 -0.11134307585247044114 12.2285600000 25.1549790000 40.1642600000
82        6   5 -0.11134307585247044114 14.1240400000 24.2022650000 39.6604980000
83        6   5 -0.11134307585247044114 12.2496980000 23.3222400000 38.9893510000
84        6   2  0.70981210855949905536 14.4282670000 27.8645250000 37.2881410000
85        6   3 -0.36882393876130831201 14.4781510000 29.1187900000 38.0499950000
86        6   3 -0.36882393876130831201 14.0438240000 27.8896670000 35.8695410000
87        6   4  0.24356297842727905878 16.2441820000 27.3354710000 37.2579850000
88        6   5 -0.11134307585247044114 16.7453150000 27.2333320000 38.5047790000
89        6   5 -0.11134307585247044114 16.4138900000 26.1561680000 36.6415220000
90        6   5 -0.11134307585247044114 16.9757840000 28.2598230000 36.5963070000
91        7   1 -0.45929018789144054891 34.5001340000 50.6061680000 29.7196660000
92        7   2  0.70981210855949905536 34.2245460000 49.3285200000 28.7569330000
93        7   3 -0.36882393876130831201 32.8728280000 48.7641770000 28.8816640000
94        7   3 -0.36882393876130831201 34.8358850000 49.3792700000 27.4190930000
95        7   4  0.24356297842727905878 35.3179500000 48.1365730000 29.7295480000
96        7   5 -0.11134307585247044114 34.9155150000 47.9963670000 31.0041910000
97        7   5 -0.11134307585247044114 36.6052300000 48.5229530000 29.7306710000
98        7   5 -0.11134307585247044114 35.2530800000 46.9224200000 29.1407330000
99        7   2  0.70981210855949905536 34.1541610000 52.1218990000 29.3151850000
100       7   3 -0.36882393876130831201 33.9549630000 52.9060470000 30.5405510000
101       7   3 -0.36882393876130831201 33.2282890000 52.2891420000 28.1857410000
102       7   4  0.24356297842727905878 35.7952580000 52.7992040000 28.6621810000
103       7   5 -0.11134307585247044114 36.7724250000 52.6876270000 29.5834610000
104       7   5 -0.11134307585247044114 36.1945630000 52.1634620000 27.5504390000
105       7   5 -0.11134307585247044114 35.6593830000 54.1110020000 28.3651810000
106       8   1 -0.45929018789144054891 19.3712970000 22.1917110000 32.9868930000
107       8   2  0.70981210855949905536 18.7916050000 20.6946810000 32.7459580000
108       8   3 -0.36882393876130831201 18.0065670000 20.1672650000 33.8714480000
109       8   3 -0.36882393876130831201 18.3425350000 20.3840350000 31.3792240000
110       8   4  0.24356297842727905878 20.4632600000 19.8320730000 32.8999960000
111       8   5 -0.11134307585247044114 21.0399400000 20.0423110000 34.0956420000
112       8   5 -0.11134307585247044114 21.3200680000 20.2221300000 31.9407680000
113       8   5 -0.11134307585247044114 20.2701930000 18.5019730000 32.7634860000
114       8   2  0.70981210855949905536 18.5514620000 23.5325410000 32.6540500000
115       8   3 -0.36882393876130831201 19.0585920000 24.6206840000 33.4995420000
116       8   3 -0.36882393876130831201 17.1022450000 23.3693420000 32.4696820000
117       8   4  0.24356297842727905878 19.1754200000 24.0273010000 30.9381700000
118       8   5 -0.11134307585247044114 20.5134630000 24.1874610000 30.9309840000
119       8   5 -0.11134307585247044114 18.8586610000 23.1159340000 30.0061530000
120       8   5 -0.11134307585247044114 18.6194300000 25.2046600000 30.5745950000
121       9   1 -0.45929018789144054891 23.2189820000 14.3897820000 23.7078860000
122       9   2  0.70981210855949905536 23.2668270000 12.9361710000 24.4289390000
123       9   3 -0.36882393876130831201 23.9781500000 12.9280650000 25.7154610000
124       9   3 -0.36882393876130831201 22.0590140000 12.1055310000 24.2972210000
125       9   4  0.24356297842727905878 24.4951820000 12.1774170000 23.2133380000
126       9   5 -0.11134307585247044114 25.6616530000 12.8441960000 23.1805030000
127       9   5 -0.11134307585247044114 23.9999540000 12.1262600000 21.9649330000
128       9   5 -0.11134307585247044114 24.7550400000 10.9109740000 23.6053500000
129       9   2  0.70981210855949905536 22.0903160000 15.4954560000 23.9983000000
130       9   3 -0.36882393876130831201 22.6362300000 16.8229990000 23.6889490000
131       9   3 -0.36882393876130831201 21.3013650000 15.3005240000 25.2232130000
132       9   4  0.24356297842727905878 20.8377740000 15.2368200000 22.6045280000
133       9   5 -0.11134307585247044114 21.4201480000 15.3532910000 21.3948430000
134       9   5 -0.11134307585247044114 20.2523590000 14.0317070000 22.6721590000
135       9   5 -0.11134307585247044114 19.8681950000 16.1753920000 22.6850600000
136      10   1 -0.45929018789144054891 12.1565810000 37.9911430000 30.6359450000
137      10   2  0.70981210855949905536 13.0340280000 38.7892730000 29.5276730000
138      10   3 -0.36882393876130831201 13.7456460000 37.9155750000 28.5835150000
139      10   3 -0.36882393876130831201 12.4503230000 40.0387960000 29.0137640000
140      10   4  0.24356297842727905878 14.3696630000 39.3550450000 30.7352450000
141      10   5 -0.11134307585247044114 14.9921590000 38.3234220000 31.3307130000
142      10   5 -0.11134307585247044114 13.8747080000 40.1609040000 31.6902290000
143      10   5 -0.11134307585247044114 15.2976810000 40.0546630000 30.0464810000
144      10   2  0.70981210855949905536 10.6412680000 37.5121050000 30.4012340000
145      10   3 -0.36882393876130831201 10.3654860000 36.3654920000 31.2760560000
146      10   3 -0.36882393876130831201 10.1853060000 37.4875080000 29.0039690000
147      10   4  0.24356297842727905878  9.6076960000 38.8844630000 31.1928900000
148      10   5 -0.11134307585247044114  9.9330560000 39.0567780000 32.4892350000
149      10   5 -0.11134307585247044114  9.7644160000 40.0585180000 30.5631170000
150      10   5 -0.11134307585247044114  8.2976800000 38.5551520000 31.1390560000
151      11   1 -0.45929018789144054891 11.0924470000 20.6028580000 48.7778070000
152      11   2  0.70981210855949905536 11.5997580000 22.0392530000 48.2169190000
153      11   3 -0.36882393876130831201 12.6784780000 22.6458250000 49.0104020000
154      11   3 -0.36882393876130831201 11.6471000000 22.1852040000 46.7531620000
155      11   4  0.24356297842727905878 10.0518290000 22.9867840000 48.7349460000
156      11   5 -0.11134307585247044114  9.8349550000 22.9284100000 50.0600440000
157      11   5 -0.11134307585247044114  8.9532220000 22.5372380000 48.1045860000
158      11   5 -0.11134307585247044114 10.2158010000 24.2854420000 48.4007640000
159      11   2  0.70981210855949905536 11.7665840000 19.1994460000 48.3819340000
160      11   3 -0.36882393876130831201 11.5055880000 18.2291860000 49.4527130000
161      11   3 -0.36882393876130831201 13.1061390000 19.2778290000 47.7816810000
162      11   4  0.24356297842727905878 10.6754230000 18.5565080000 46.9768160000
163      11   5 -0.11134307585247044114  9.3882210000 18.4561950000 47.3629660000
164      11   5 -0.11134307585247044114 10.7270170000 19.3505750000 45.8968270000
165      11   5 -0.11134307585247044114 11.0900010000 17.3240480000 46.6071520000
166      12   1 -0.45929018789144054891 25.5221540000 20.1688740000 52.8345540000
167      12   2  0.70981210855949905536 24.5566540000 19.6146460000 51.6531010000
168      12   3 -0.36882393876130831201 24.1049520000 18.2293280000 51.8481430000
169      12   3 -0.36882393876130831201 23.6049860000 20.5824830000 51.0841150000
170      12   4  0.24356297842727905878 25.9230320000 19.4805240000 50.3580060000
171      12   5 -0.11134307585247044114 26.9079290000 18.6481570000 50.7367800000
172      12   5 -0.11134307585247044114 26.4644160000 20.6772590000 50.0732100000
173      12   5 -0.11134307585247044114 25.3843570000 18.9910320000 49.2198910000
174      12   2  0.70981210855949905536 24.9818770000 20.8514380000 54.1847210000
175      12   3 -0.36882393876130831201 25.9920290000 20.6850090000 55.2373290000
176      12   3 -0.36882393876130831201 23.5631600000 20.6241600000 54.4952700000
177      12   4  0.24356297842727905878 25.0765270000 22.7053480000 53.8208320000
178      12   5 -0.11134307585247044114 26.3276780000 23.0748940000 53.4830170000
179      12   5 -0.11134307585247044114 24.2516160000 23.0649850000 52.8259630000
180      12   5 -0.11134307585247044114 24.7264910000 23.4033990000 54.9243200000
181      13   1 -0.45929018789144054891  4.0697030000  8.1683570000 34.7412230000
182      13   2  0.70981210855949905536  4.1252280000  6.6097490000 34.2908350000
183      13   3 -0.36882393876130831201  3.4378190000  5.6942040000 35.2130200000
184      13   3 -0.36882393876130831201  4.0239160000  6.3469040000 32.8462680000
185      13   4  0.24356297842727905878  5.9565560000  6.3782780000 34.6844200000
186      13   5 -0.11134307585247044114  6.2366830000  6.6159170000 35.9772400000
187      13   5 -0.11134307585247044114  6.7367430000  7.1695710000 33.9284130000
188      13   5 -0.11134307585247044114  6.2903640000  5.0963940000 34.4190500000
189      13   2  0.70981210855949905536  2.8693790000  9.1665630000 34.3623450000
190      13   3 -0.36882393876130831201  2.8115360000 10.2399030000 35.3626880000
191      13   3 -0.36882393876130831201  1.6256500000  8.5300560000 33.9053410000
192      13   4  0.24356297842727905878  3.5057180000 10.0742080000 32.8295010000
193      13   5 -0.11134307585247044114  4.6760000000 10.6944200000 33.0781730000
194      13   5 -0.11134307585247044114  3.6854400000  9.2432130000 31.7918460000
195      13   5 -0.11134307585247044114  2.6124380000 11.0179380000 32.4567930000
196      14   1 -0.45929018789144054891 34.9538920000 39.0350760000 46.7047600000
197      14   2  0.70981210855949905536 35.6530920000 40.4582830000 46.3572100000
198      14   3 -0.36882393876130831201 34.8336070000 41.6290750000 46.7019870000
199      14   3 -0.36882393876130831201 37.1064270000 40.5385500000 46.5751550000
200      14   4  0.24356297842727905878 35.4657210000 40.2938550000 44.4863530000
201      14   5 -0.11134307585247044114 34.1814380000 40.1741410000 44.1087140000
202      14   5 -0.11134307585247044114 36.1501390000 39.2427890000 44.0034300000
203      14   5 -0.11134307585247044114 35.9630320000 41.4093790000 43.9089760000
204      14   2  0.70981210855949905536 35.0588990000 38.3128700000 48.1358900000
205      14   3 -0.36882393876130831201 33.8972720000 37.4314720000 48.3086650000
206      14   3 -0.36882393876130831201 35.5007350000 39.1614960000 49.2518960000
207      14   4  0.24356297842727905878 36.4753580000 37.0788010000 47.9143680000
208      14   5 -0.11134307585247044114 36.2344210000 36.2351310000 46.8915130000
209      14   5 -0.11134307585247044114 37.6453290000 37.6928990000 47.6827800000
210      14   5 -0.11134307585247044114 36.6102760000 36.3359370000 49.0357230000
211      15   1 -0.45929018789144054891  2.9965590000 40.2764720000 30.9861210000
212      15   2  0.70981210855949905536  2.9098200000 38.7382780000 31.4976130000
213      15   3 -0.36882393876130831201  4.1867820000 38.0125840000 31.4349950000
214      15   3 -0.36882393876130831201  2.0209520000 38.4835110000 32.6426590000
215      15   4  0.24356297842727905878  1.9439510000 38.1102230000 30.0026580000
216      15   5 -0.11134307585247044114  2.6067320000 38.2983420000 28.8486820000
217      15   5 -0.11134307585247044114  0.7388750000 38.6965560000 29.9007370000
218      15   5 -0.11134307585247044114  1.7444300000 36.7824390000 30.1518570000
219      15   2  0.70981210855949905536  3.4015520000 41.5114560000 31.9303330000
220      15   3 -0.36882393876130831201  3.9548270000 42.5852110000 31.0954500000
221      15   3 -0.36882393876130831201  4.0606560000 41.1615640000 33.1968290000
222      15   4  0.24356297842727905878  1.7370390000 42.2318940000 32.4676600000
223      15   5 -0.11134307585247044114  0.9871540000 42.5792250000 31.4031900000
224      15   5 -0.11134307585247044114  1.0314790000 41.3666490000 33.2113790000
225      15   5 -0.11134307585247044114  1.9411680000 43.3454300000 33.2064800000
226      16   1 -0.45929018789144054891 57.5175450000 55.8262660000 47.3540020000
227      16   2  0.70981210855949905536 55.9163020000 55.5900670000 47.2298160000
228      16   3 -0.36882393876130831201 55.1065020000 56.7532840000 47.6201110000
229      16   3 -0.36882393876130831201 55.4656310000 54.7818370000 46.0853570000
230      16   4  0.24356297842727905878 55.7958340000 54.4223140000 48.7076830000
231      16   5 -0.11134307585247044114 56.2075470000 54.9979160000 49.8502690000
232      16   5 -0.11134307585247044114 56.5069350000 53.2976290000 48.5184750000
233      16   5 -0.11134307585247044114 54.5016060000 54.0691840000 48.8669010000
234      16   2  0.70981210855949905536 58.4198000000 56.4682040000 46.1901320000
235      16   3 -0.36882393876130831201 59.6112050000 57.0771120000 46.7950070000
236      16   3 -0.36882393876130831201 57.6904320000 57.1877770000 45.1360490000
237      16   4  0.24356297842727905878 59.1411190000 54.9639000000 45.2984340000
238      16   5 -0.11134307585247044114 59.8250490000 54.1723760000 46.1480170000
239      16   5 -0.11134307585247044114 58.1889290000 54.2230180000 44.7119120000
240      16   5 -0.11134307585247044114 59.9999060000 55.3735840000 44.3381580000
241      17   1 -0.45929018789144054891 42.2047300000 44.3739140000 26.9363980000
242      17   2  0.70981210855949905536 41.5423920000 45.3340180000 25.8073720000
243      17   3 -0.36882393876130831201 42.0750950000 46.7041700000 25.7978000000
244      17   3 -0.36882393876130831201 41.2320600000 44.6998430000 24.5160000000
245      17   4  0.24356297842727905878 39.8704750000 45.4908550000 26.6689670000
246      17   5 -0.11134307585247044114 39.9749720000 46.0296030000 27.8958160000
247      17   5 -0.11134307585247044114 39.2481560000 44.3045640000 26.7776640000
248      17   5 -0.11134307585247044114 39.0841110000 46.3018940000 25.9280730000
249      17   2  0.70981210855949905536 43.5523900000 43.5285860000 26.7128490000
250      17   3 -0.36882393876130831201 44.1779570000 43.2795790000 28.0177450000
251      17   3 -0.36882393876130831201 44.3852390000 43.9385320000 25.5730410000
252      17   4  0.24356297842727905878 42.9300120000 41.8097300000 26.2265000000
253      17   5 -0.11134307585247044114 42.1135580000 41.2995530000 27.1694660000
254      17   5 -0.11134307585247044114 42.2639980000 41.8272490000 25.0621560000
255      17   5 -0.11134307585247044114 43.9790790000 40.9676320000 26.0930240000
256      18   1 -0.45929018789144054891 10.8955510000 48.7513740000 21.0444170000
257      18   2  0.70981210855949905536 10.6380400000 50.1775800000 20.3131080000
258      18   3 -0.36882393876130831201  9.8137790000 50.0887940000 19.0990680000
259      18   3 -0.36882393876130831201 10.4475970000 51.3371010000 21.1993180000
260      18   4  0.24356297842727905878 12.4011450000 50.3639850000 19.6658330000
261      18   5 -0.11134307585247044114 12.7578990000 49.3546640000 18.8532280000
262      18   5 -0.11134307585247044114 13.2972250000 50.4422150000 20.6644830000
263      18   5 -0.11134307585247044114 12.4749670000 51.5108730000 18.9557100000
264      18   2  0.70981210855949905536  9.8991130000 48.1095420000 22.1288090000
265      18   3 -0.36882393876130831201 10.0766040000 46.6519490000 22.1317280000
266      18   3 -0.36882393876130831201  8.5439590000 48.6776030000 22.1702460000
267      18   4  0.24356297842727905878 10.6546040000 48.6137300000 23.7881420000
268      18   5 -0.11134307585247044114 11.9287270000 48.1881620000 23.8956740000
269      18   5 -0.11134307585247044114 10.6421680000 49.9437640000 23.9626020000
270      18   5 -0.11134307585247044114  9.9490830000 48.0552380000 24.7970080000
271      19   1 -0.45929018789144054891 28.4483500000 55.7525190000 55.7114490000
272      19   2  0.70981210855949905536 27.3773140000 56.0777830000 54.5357480000
273      19   3 -0.36882393876130831201 26.8556110000 57.4519210000 54.5631800000
274      19   3 -0.36882393876130831201 27.6430240000 55.4611640000 53.2260510000
275      19   4  0.24356297842727905878 25.9859320000 55.0370600000 55.2727720000
276      19   5 -0.11134307585247044114 25.6351230000 55.4484580000 56.5032240000
277      19   5 -0.11134307585247044114 26.3127130000 53.7349770000 55.3374020000
278      19   5 -0.11134307585247044114 24.9013380000 55.1502090000 54.4753200000
279      19   2  0.70981210855949905536 30.0250210000 56.0346980000 55.5880560000
280      19   3 -0.36882393876130831201 30.5832130000 56.2048550000 56.9354830000
281      19   3 -0.36882393876130831201 30.4306940000 56.9497670000 54.5115190000
282      19   4  0.24356297842727905878 30.7410030000 54.3653130000 55.0599660000
283      19   5 -0.11134307585247044114 30.4254180000 53.3961250000 55.9415230000
284      19   5 -0.11134307585247044114 30.3000060000 53.9894270000 53.8500850000
285      19   5 -0.11134307585247044114 32.0892860000 54.4462630000 55.0046020000
286      20   1 -0.45929018789144054891 11.5462510000 53.1870890000 56.8967350000
287      20   2  0.70981210855949905536 11.0170610000 54.2681380000 57.9859920000
288      20   3 -0.36882393876130831201  9.5704380000 54.5224580000 57.9244780000
289      20   3 -0.36882393876130831201 11.6595420000 54.2247580000 59.3094200000
290      20   4  0.24356297842727905878 11.7893560000 55.7661030000 57.1363370000
291      20   5 -0.11134307585247044114 11.3320270000 55.9370720000 55.8841600000
292      20   5 -0.11134307585247044114 13.1299850000 55.6821540000 57.0910780000
293      20   5 -0.11134307585247044114 11.4697450000 56.8700770000 57.8463850000
294      20   2  0.70981210855949905536 11.5595710000 51.6000440000 57.1454410000
295      20   3 -0.36882393876130831201 11.5086650000 50.9161160000 55.8470800000
296      20   3 -0.36882393876130831201 10.7250490000 51.1175320000 58.2552200000
297      20   4  0.24356297842727905878 13.3274540000 51.2493590000 57.7198680000
298      20   5 -0.11134307585247044114 14.2299490000 51.6689360000 56.8112870000
299      20   5 -0.11134307585247044114 13.6035410000 51.8458180000 58.8893090000
300      20   5 -0.11134307585247044114 13.4969040000 49.9179800000 57.8817370000
301      21   1 -0.45929018789144054891 57.6594510000 43.1546660000 38.8446740000
302      21   2  0.70981210855949905536 56.7714310000 44.2604260000 38.0547970000
303      21   3 -0.36882393876130831201 57.1076320000 45.6513680000 38.3915930000
304      21   3 -0.36882393876130831201 56.4349720000 43.9455410000 36.6570240000
305      21   4  0.24356297842727905878 55.1792610000 43.9221770000 39.0102190000
306      21   5 -0.11134307585247044114 55.3199460000 44.1307700000 40.3304550000
307      21   5 -0.11134307585247044114 54.7384190000 42.6663540000 38.8232740000
308      21   5 -0.11134307585247044114 54.2247320000 44.7650030000 38.5590030000
309      21   2  0.70981210855949905536 59.0845200000 42.6194810000 38.3313550000
310      21   3 -0.36882393876130831201 59.8545330000 42.1391730000 39.4856840000
311      21   3 -0.36882393876130831201 59.7458700000 43.4386560000 37.3054780000
312      21   4  0.24356297842727905878 58.6626630000 41.0120890000 37.4276510000
313      21   5 -0.11134307585247044114 58.0133440000 40.1515140000 38.2362650000
314      21   5 -0.11134307585247044114 57.8973690000 41.2288310000 36.3474050000
315      21   5 -0.11134307585247044114 59.8009790000 40.4095820000 37.0169100000
316      22   1 -0.45929018789144054891 42.5517130000 37.4247970000 33.8578050000
317      22   2  0.70981210855949905536 41.9240890000 38.6624690000 34.7000920000
318      22   3 -0.36882393876130831201 40.4545540000 38.7030660000 34.7011680000
319      22   3 -0.36882393876130831201 42.6305360000 39.0306470000 35.9376310000
320      22   4  0.24356297842727905878 42.4253640000 39.9923070000 33.4581160000
321      22   5 -0.11134307585247044114 41.8866380000 39.7883440000 32.2438250000
322      22   5 -0.11134307585247044114 43.7599160000 40.0752070000 33.3221690000
323      22   5 -0.11134307585247044114 41.9827070000 41.1858550000 33.9104160000
324      22   2  0.70981210855949905536 42.8099790000 35.9636810000 34.4735810000
325      22   3 -0.36882393876130831201 42.7959140000 34.9802790000 33.3832540000
326      22   3 -0.36882393876130831201 42.1110990000 35.6650400000 35.7318470000
327      22   4  0.24356297842727905878 44.6363640000 35.9987910000 34.9649470000
328      22   5 -0.11134307585247044114 45.4215660000 36.2954280000 33.9106570000
329      22   5 -0.11134307585247044114 44.8793630000 36.8957620000 35.9324050000
330      22   5 -0.11134307585247044114 45.0070840000 34.7821510000 35.4230270000
331      23   1 -0.45929018789144054891 32.2300760000 51.5492320000 12.9316110000
332      23   2  0.70981210855949905536 31.4723880000 50.1136200000 12.9424600000
333      23   3 -0.36882393876130831201 32.3757860000 48.9579990000 12.8445130000