Generated by pymatgen.io.lammps.data.LammpsData

17678  atoms
17000  bonds
31005  angles
34086  dihedrals

   15  atom types
   14  bond types
   23  angle types
   22  dihedral types

-0.2500000000 60.2500000000  xlo xhi
-0.2500000000 60.2500000000  ylo yhi
-0.2500000000 60.2500000000  zlo zhi

Masses

1   15.99940
2   12.01070
3    1.00794
4   14.01000
5   32.06000
6   16.00000
7   12.01000
8   19.00000
9   16.00000
10  12.01000
11  12.01000
12   1.00800
13  32.06000
14  32.06000
15   6.94100

Pair Coeffs

1     0.1400  2.900000
2     0.0660  3.500000
3     0.0300  2.500000
4       0.17  3.249999
5       0.25  3.549340
6       0.21  2.959566
7      0.066  3.499450
8      0.053  2.948875
9       0.14  2.900000
10     0.066  3.500000
11     0.066  3.500000
12      0.03  2.500000
13  0.344001  3.590322
14  0.344001  3.590322
15  0.165057  1.506000

Bond Coeffs

1   320.00  1.410
2   268.00  1.529
3   340.00  1.090
4   441.80  1.323
5   235.40  1.818
6   637.10  1.442
7   372.00  1.570
8   320.00  1.410
9   320.00  1.380
10  268.00  1.529
11  340.00  1.090
12  340.00  1.090
13  157.87  2.133
14  154.36  2.117


Angle Coeffs

1    60.00  109.50
2    58.35  112.70
3    37.50  110.70
4    33.00  107.80
5    50.00  109.50
6    35.00  109.50
7    93.30  107.10
8    82.90  111.80
9   104.00  102.60
10  115.80  118.50
11   94.30  113.60
12   97.50  100.20
13   80.20  125.60
14   60.00  109.50
15   50.00  109.50
16   35.00  109.50
17   37.50  110.70
18   33.00  107.80
19   92.60  111.55
20   35.00  109.50
21   33.00  109.50
22   73.56  112.74
23   73.56  112.74


Dihedral Coeffs

1 3 0.062500000 1 0.000000000 -0.011000000 2 180.000000000 0.280500000 3 0.000000000
2 1 0.370500000 3 0.000000000
3 3 0.567500000 1 0.000000000 -0.075500000 2 180.000000000 0.200000000 3 0.000000000
4 1 0.150000000 3 0.000000000
5 1 0.150000000 3 0.000000000
6 3 0.627500000 1 0.000000000 -0.309500000 2 180.000000000 0.273000000 3 0.000000000
7 1 0.234000000 3 0.000000000
8 1 0.173400000 3 0.000000000
9 1 0.158000000 3 0.000000000
10 1 -0.001800000 3 0.000000000
11 3 3.916460000 1 0.000000000 -1.245000000 2 180.000000000 -0.381800000 3 0.000000000
12 3 0.062500000 1 0.000000000 -0.011000000 2 180.000000000 0.280500000 3 0.000000000
13 3 0.062500000 1 0.000000000 -0.011000000 2 180.000000000 0.280500000 3 0.000000000
14 1 0.370500000 3 0.000000000
15 1 0.370500000 3 0.000000000
16 3 -0.533500000 1 0.000000000 -0.783500000 2 180.000000000 0.337500000 3 0.000000000
17 1 0.370500000 3 0.000000000
18 3 1.119000000 1 0.000000000 -1.163500000 2 180.000000000 -0.341500000 3 0.000000000
19 1 0.234000000 3 0.000000000
20 1 0.150000000 3 0.000000000
21 4 5.431700000 1 0.000000000 -3.590000000 2 180.000000000 1.055600000 3 0.000000000 0.058320000 4 180.000000000
22 4 5.431700000 1 0.000000000 -3.590000000 2 180.000000000 1.055600000 3 0.000000000 0.058320000 4 180.000000000


Atoms

1         1   1 -0.40000000000000002220  7.5897960000 34.2850290000 55.9113890000
2         1   2 -0.11999999999999999556  5.3546890000 32.3866500000 56.0867960000
3         1   2 -0.11999999999999999556  4.1625950000 33.3568770000 56.1629310000
4         1   2 -0.11999999999999999556  6.2791560000 32.5678030000 54.8689840000
5         1   2 -0.11999999999999999556  3.2051200000 33.2928040000 54.9646530000
6         1   2  0.14000000000000001332  6.8669560000 33.9665540000 54.7300860000
7         1   2 -0.17999999999999999334  1.9784670000 34.1970860000 55.1388590000
8         1   2  0.11000000000000000056  8.1551090000 35.5809300000 55.8850670000
9         1   3  0.05999999999999999778  4.9757120000 31.3545710000 56.0816550000
10        1   3  0.05999999999999999778  5.9565420000 32.4963040000 56.9973860000
11        1   3  0.05999999999999999778  3.5966730000 33.1354340000 57.0800190000
12        1   3  0.05999999999999999778  4.5299300000 34.3860460000 56.2818340000
13        1   3  0.05999999999999999778  5.7414710000 32.3343330000 53.9400640000
14        1   3  0.05999999999999999778  7.1063370000 31.8494850000 54.9401360000
15        1   3  0.05999999999999999778  3.7360010000 33.5795120000 54.0462910000
16        1   3  0.05999999999999999778  2.8793690000 32.2525870000 54.8172950000
17        1   3  0.02999999999999999889  6.0700300000 34.7141760000 54.5689800000
18        1   3  0.02999999999999999889  7.5383270000 34.0118040000 53.8543560000
19        1   3  0.05999999999999999778  2.2779950000 35.2451460000 55.2648440000
20        1   3  0.05999999999999999778  1.3100510000 34.1415780000 54.2708550000
21        1   3  0.05999999999999999778  1.4004280000 33.9095560000 56.0265400000
22        1   3  0.02999999999999999889  8.6822090000 35.7225110000 56.8326520000
23        1   3  0.02999999999999999889  8.8716690000 35.6933290000 55.0540480000
24        1   3  0.02999999999999999889  7.3786640000 36.3575290000 55.7862890000
25        2   1 -0.40000000000000002220 44.2658240000 13.1857050000 25.9989800000
26        2   2 -0.11999999999999999556 43.3194320000 15.9642000000 25.8780850000
27        2   2 -0.11999999999999999556 43.9280390000 16.4140630000 24.5381410000
28        2   2 -0.11999999999999999556 42.4253530000 14.7124790000 25.8122350000
29        2   2 -0.11999999999999999556 42.9013350000 16.7553170000 23.4490320000
30        2   2  0.14000000000000001332 43.1095390000 13.4828130000 25.2281820000
31        2   2 -0.17999999999999999334 43.5529270000 17.3016240000 22.1724260000
32        2   2  0.11000000000000000056 44.9839970000 12.0674730000 25.5158450000
33        2   3  0.05999999999999999778 42.7263470000 16.7900830000 26.2964180000
34        2   3  0.05999999999999999778 44.1336980000 15.7708260000 26.5873110000
35        2   3  0.05999999999999999778 44.5536160000 17.2996850000 24.7243680000
36        2   3  0.05999999999999999778 44.6129820000 15.6399340000 24.1641900000
37        2   3  0.05999999999999999778 41.5259040000 14.9135170000 25.2146740000
38        2   3  0.05999999999999999778 42.0793770000 14.4685750000 26.8251940000
39        2   3  0.05999999999999999778 42.3116570000 15.8626360000 23.1983820000
40        2   3  0.05999999999999999778 42.1869080000 17.4926120000 23.8438380000
41        2   3  0.02999999999999999889 43.3983430000 13.6555050000 24.1761580000
42        2   3  0.02999999999999999889 42.4182830000 12.6215760000 25.2393530000
43        2   3  0.05999999999999999778 44.2541070000 16.5728590000 21.7466720000
44        2   3  0.05999999999999999778 42.8041580000 17.5340230000 21.4052050000
45        2   3  0.05999999999999999778 44.1166720000 18.2201750000 22.3803650000
46        2   3  0.02999999999999999889 45.8464840000 11.9289420000 26.1736620000
47        2   3  0.02999999999999999889 44.3679280000 11.1526650000 25.5322210000
48        2   3  0.02999999999999999889 45.3406470000 12.2318810000 24.4855540000
49        3   1 -0.40000000000000002220  8.0684780000 36.0223340000 18.7623750000
50        3   2 -0.11999999999999999556  7.3424610000 34.5671530000 16.3158140000
51        3   2 -0.11999999999999999556  8.7029370000 34.5206590000 15.5980610000
52        3   2 -0.11999999999999999556  7.3251280000 33.9836030000 17.7404860000
53        3   2 -0.11999999999999999556  9.2888000000 33.1124910000 15.4232390000
54        3   2  0.14000000000000001332  8.3247840000 34.6262620000 18.6938920000
55        3   2 -0.17999999999999999334 10.5880500000 33.1095870000 14.6079550000
56        3   2  0.11000000000000000056  8.9664550000 36.7116790000 19.6097670000
57        3   3  0.05999999999999999778  6.6010270000 34.0246500000 15.7118260000
58        3   3  0.05999999999999999778  7.0058560000 35.6100820000 16.3650160000
59        3   3  0.05999999999999999778  8.5842480000 34.9800320000 14.6054670000
60        3   3  0.05999999999999999778  9.4256600000 35.1526690000 16.1333150000
61        3   3  0.05999999999999999778  7.5281710000 32.9043920000 17.7163610000
62        3   3  0.05999999999999999778  6.3182910000 34.1027280000 18.1616290000
63        3   3  0.05999999999999999778  9.4804650000 32.6626030000 16.4072560000
64        3   3  0.05999999999999999778  8.5434920000 32.4690630000 14.9329350000
65        3   3  0.02999999999999999889  9.3609730000 34.4548750000 18.3519520000
66        3   3  0.02999999999999999889  8.2346410000 34.1773400000 19.6988960000
67        3   3  0.05999999999999999778 11.3557110000 33.7276320000 15.0903840000
68        3   3  0.05999999999999999778 10.9934380000 32.0961410000 14.4989560000
69        3   3  0.05999999999999999778 10.4220040000 33.5147160000 13.6014360000
70        3   3  0.02999999999999999889  8.6837080000 37.7678120000 19.5889620000
71        3   3  0.02999999999999999889  8.9072920000 36.3433710000 20.6478100000
72        3   3  0.02999999999999999889 10.0075500000 36.6114940000 19.2607470000
73        4   1 -0.40000000000000002220  1.4207890000 10.7747400000 29.3849480000
74        4   2 -0.11999999999999999556  2.0622780000  9.6872520000 32.0375260000
75        4   2 -0.11999999999999999556  3.2806630000 10.5497050000 32.4116080000
76        4   2 -0.11999999999999999556  0.7845880000 10.4670590000 31.6770710000
77        4   2 -0.11999999999999999556  3.0658040000 11.4760840000 33.6167610000
78        4   2  0.14000000000000001332  0.9584310000 11.4642120000 30.5383120000
79        4   2 -0.17999999999999999334  4.3395070000 12.2315440000 34.0164000000
80        4   2  0.11000000000000000056  1.6353880000 11.6264080000 28.2766860000
81        4   3  0.05999999999999999778  1.8305420000  9.0136820000 32.8750450000
82        4   3  0.05999999999999999778  2.3303470000  9.0497670000 31.1859530000
83        4   3  0.05999999999999999778  4.1244980000  9.8778080000 32.6280580000
84        4   3  0.05999999999999999778  3.5919750000 11.1471770000 31.5430610000
85        4   3  0.05999999999999999778  0.4096690000 11.0159740000 32.5515040000
86        4   3  0.05999999999999999778 -0.0006960000  9.7531600000 31.3960890000
87        4   3  0.05999999999999999778  2.2719560000 12.2021990000 33.3931840000
88        4   3  0.05999999999999999778  2.7054810000 10.8822300000 34.4696300000
89        4   3  0.02999999999999999889  1.6799050000 12.2540050000 30.8134250000
90        4   3  0.02999999999999999889 -0.0024740000 11.9624430000 30.3189540000
91        4   3  0.05999999999999999778  4.7056570000 12.8500410000 33.1872950000
92        4   3  0.05999999999999999778  4.1642910000 12.8915280000 34.8748950000
93        4   3  0.05999999999999999778  5.1421760000 11.5337890000 34.2877670000
94        4   3  0.02999999999999999889  1.9877910000 11.0005930000 27.4520870000
95        4   3  0.02999999999999999889  0.7056560000 12.1351130000 27.9709070000
96        4   3  0.02999999999999999889  2.3975900000 12.3917650000 28.4980580000
97        5   1 -0.40000000000000002220 45.2892020000 25.6908340000 10.6208530000
98        5   2 -0.11999999999999999556 43.6303670000 23.3186760000 10.1194130000
99        5   2 -0.11999999999999999556 42.6265790000 23.4226230000 11.2812350000
100       5   2 -0.11999999999999999556 43.7181940000 24.5561020000  9.2075010000
101       5   2 -0.11999999999999999556 41.1723060000 23.6651850000 10.8534650000
102       5   2  0.14000000000000001332 44.0536290000 25.8507520000  9.9373450000
103       5   2 -0.17999999999999999334 40.1974820000 23.6515640000 12.0376440000
104       5   2  0.11000000000000000056 45.6736860000 26.8393630000 11.3507080000
105       5   3  0.05999999999999999778 43.3690650000 22.4501130000  9.4979980000
106       5   3  0.05999999999999999778 44.6274630000 23.1216530000 10.5322170000
107       5   3  0.05999999999999999778 42.6735530000 22.4889250000 11.8611970000
108       5   3  0.05999999999999999778 42.9410950000 24.2175670000 11.9721810000
109       5   3  0.05999999999999999778 42.7712330000 24.7067910000  8.6717190000
110       5   3  0.05999999999999999778 44.4855780000 24.3805100000  8.4422810000
111       5   3  0.05999999999999999778 41.0918610000 24.6291790000 10.3322470000
112       5   3  0.05999999999999999778 40.8773200000 22.8973380000 10.1232080000
113       5   3  0.02999999999999999889 43.2601990000 26.1121840000 10.6599140000
114       5   3  0.02999999999999999889 44.1269600000 26.6851700000  9.2175820000
115       5   3  0.05999999999999999778 40.4584210000 24.4259330000 12.7699580000
116       5   3  0.05999999999999999778 39.1654810000 23.8319350000 11.7124780000
117       5   3  0.05999999999999999778 40.2217990000 22.6845310000 12.5563320000
118       5   3  0.02999999999999999889 46.6272030000 26.6101840000 11.8345250000
119       5   3  0.02999999999999999889 45.8055800000 27.7132150000 10.6906540000
120       5   3  0.02999999999999999889 44.9300780000 27.0930500000 12.1242840000
121       6   1 -0.40000000000000002220  3.0885790000 32.4597410000 27.9593300000
122       6   2 -0.11999999999999999556  4.4776450000 32.0822220000 30.5202450000
123       6   2 -0.11999999999999999556  5.9436840000 32.0881680000 30.0523560000
124       6   2 -0.11999999999999999556  3.6517790000 33.3204390000 30.1261840000
125       6   2 -0.11999999999999999556  6.7792570000 33.2657250000 30.5738060000
126       6   2  0.14000000000000001332  3.6132260000 33.5982370000 28.6286360000
127       6   2 -0.17999999999999999334  8.2559000000 33.1674130000 30.1705590000
128       6   2  0.11000000000000000056  3.0362780000 32.6154210000 26.5548150000
129       6   3  0.05999999999999999778  4.4523300000 31.9848880000 31.6151070000
130       6   3  0.05999999999999999778  3.9819670000 31.1920340000 30.1136800000
131       6   3  0.05999999999999999778  6.4133220000 31.1487950000 30.3800330000
132       6   3  0.05999999999999999778  5.9817700000 32.0718780000 28.9539270000
133       6   3  0.05999999999999999778  4.0419660000 34.2176130000 30.6255220000
134       6   3  0.05999999999999999778  2.6212850000 33.1885870000 30.4811070000
135       6   3  0.05999999999999999778  6.3660680000 34.2122900000 30.1986870000
136       6   3  0.05999999999999999778  6.6976910000 33.3096700000 31.6698430000
137       6   3  0.02999999999999999889  4.6239220000 33.8227180000 28.2438160000
138       6   3  0.02999999999999999889  2.9821040000 34.4805580000 28.4215490000
139       6   3  0.05999999999999999778  8.3641650000 33.1452460000 29.0788610000
140       6   3  0.05999999999999999778  8.8344390000 34.0197730000 30.5474770000
141       6   3  0.05999999999999999778  8.7118470000 32.2508640000 30.5665780000
142       6   3  0.02999999999999999889  2.6228010000 31.6907650000 26.1426910000
143       6   3  0.02999999999999999889  2.3888760000 33.4600970000 26.2648550000
144       6   3  0.02999999999999999889  4.0401740000 32.7808310000 26.1298900000
145       7   1 -0.40000000000000002220 10.5869380000 53.7328930000 25.3959190000
146       7   2 -0.11999999999999999556 10.6308490000 55.1634440000 22.8303960000
147       7   2 -0.11999999999999999556 11.4023300000 56.4346860000 23.2266110000
148       7   2 -0.11999999999999999556 11.3497810000 53.8340130000 23.1241150000
149       7   2 -0.11999999999999999556 12.7662960000 56.5977440000 22.5412340000
150       7   2  0.14000000000000001332 11.7487840000 53.6453860000 24.5823750000
151       7   2 -0.17999999999999999334 13.4449410000 57.9298720000 22.8842010000
152       7   2  0.11000000000000000056 10.8624640000 53.5929560000 26.7758240000
153       7   3  0.05999999999999999778 10.4048330000 55.2031170000 21.7551380000
154       7   3  0.05999999999999999778  9.6671570000 55.1587690000 23.3545160000
155       7   3  0.05999999999999999778 10.7774190000 57.3066120000 22.9825100000
156       7   3  0.05999999999999999778 11.5365080000 56.4614550000 24.3172720000
157       7   3  0.05999999999999999778 12.2573980000 53.7443790000 22.5119860000
158       7   3  0.05999999999999999778 10.6937950000 53.0029640000 22.8337480000
159       7   3  0.05999999999999999778 13.4304240000 55.7709900000 22.8290470000
160       7   3  0.05999999999999999778 12.6352760000 56.5195050000 21.4519250000
161       7   3  0.02999999999999999889 12.4789650000 54.4136410000 24.8931910000
162       7   3  0.02999999999999999889 12.2316880000 52.6618060000 24.7204520000
163       7   3  0.05999999999999999778 13.6072680000 58.0208790000 23.9655820000
164       7   3  0.05999999999999999778 14.4195480000 58.0249430000 22.3898360000
165       7   3  0.05999999999999999778 12.8250890000 58.7796230000 22.5703730000
166       7   3  0.02999999999999999889  9.9094310000 53.6767800000 27.3054440000
167       7   3  0.02999999999999999889 11.3146480000 52.6124040000 27.0010620000
168       7   3  0.02999999999999999889 11.5429020000 54.3835140000 27.1332470000
169       8   1 -0.40000000000000002220 22.7440330000 15.6265620000 32.7055880000
170       8   2 -0.11999999999999999556 21.7468560000 13.5361890000 30.8983000000
171       8   2 -0.11999999999999999556 21.4871270000 14.3608470000 29.6252310000
172       8   2 -0.11999999999999999556 23.1769470000 13.6215650000 31.4622770000
173       8   2 -0.11999999999999999556 22.3745360000 13.9908450000 28.4284280000
174       8   2  0.14000000000000001332 23.6438180000 15.0373320000 31.7768290000
175       8   2 -0.17999999999999999334 22.0034620000 14.7629430000 27.1560610000
176       8   2  0.11000000000000000056 23.0840870000 16.9573900000 33.0415860000
177       8   3  0.05999999999999999778 21.5196410000 12.4802880000 30.6926730000
178       8   3  0.05999999999999999778 21.0474540000 13.8624940000 31.6779070000
179       8   3  0.05999999999999999778 20.4333070000 14.2283710000 29.3384080000
180       8   3  0.05999999999999999778 21.6021040000 15.4311690000 29.8476110000
181       8   3  0.05999999999999999778 23.8947190000 13.1784050000 30.7587730000
182       8   3  0.05999999999999999778 23.2327690000 13.0254680000 32.3825080000
183       8   3  0.05999999999999999778 23.4288160000 14.1829850000 28.6713300000
184       8   3  0.05999999999999999778 22.2962330000 12.9098660000 28.2407240000
185       8   3  0.02999999999999999889 23.6857320000 15.6509230000 30.8593680000
186       8   3  0.02999999999999999889 24.6629680000 15.0162020000 32.2017720000
187       8   3  0.05999999999999999778 22.0963570000 15.8450650000 27.3122730000
188       8   3  0.05999999999999999778 22.6516900000 14.4889310000 26.3146270000
189       8   3  0.05999999999999999778 20.9660840000 14.5595050000 26.8606930000
190       8   3  0.02999999999999999889 22.3338530000 17.3123570000 33.7535860000
191       8   3  0.02999999999999999889 24.0809450000 17.0146040000 33.5102910000
192       8   3  0.02999999999999999889 23.0754740000 17.6119470000 32.1543380000
193       9   1 -0.40000000000000002220 11.3458300000 58.6299470000  4.1504180000
194       9   2 -0.11999999999999999556 13.6584200000 58.4007840000  5.9475610000
195       9   2 -0.11999999999999999556 12.9677700000 58.5243670000  7.3172160000
196       9   2 -0.11999999999999999556 13.1227640000 57.2829290000  5.0343280000
197       9   2 -0.11999999999999999556 13.0494300000 57.2663450000  8.1932560000
198       9   2  0.14000000000000001332 11.6294980000 57.3707900000  4.7449390000
199       9   2 -0.17999999999999999334 12.4437020000 57.4758280000  9.5867980000
200       9   2  0.11000000000000000056  9.9729190000 58.8139690000  3.8660140000
201       9   3  0.05999999999999999778 14.7338130000 58.2332190000  6.1034120000
202       9   3  0.05999999999999999778 13.5624630000 59.3563790000  5.4174150000
203       9   3  0.05999999999999999778 13.4274700000 59.3636890000  7.8599590000
204       9   3  0.05999999999999999778 11.9138740000 58.8032570000  7.1765550000
205       9   3  0.05999999999999999778 13.3232350000 56.2971110000  5.4753260000
206       9   3  0.05999999999999999778 13.6635080000 57.3137950000  4.0793860000
207       9   3  0.05999999999999999778 12.5333120000 56.4320570000  7.6982690000
208       9   3  0.05999999999999999778 14.1016190000 56.9606580000  8.2898720000
209       9   3  0.02999999999999999889 11.0413700000 57.2569000000  5.6729040000
210       9   3  0.02999999999999999889 11.3253830000 56.5561050000  4.0641370000
211       9   3  0.05999999999999999778 11.3860930000 57.7596520000  9.5166120000
212       9   3  0.05999999999999999778 12.5066320000 56.5650370000 10.1949040000
213       9   3  0.05999999999999999778 12.9656520000 58.2764860000 10.1265170000
214       9   3  0.02999999999999999889  9.8663030000 59.8053410000  3.4170010000
215       9   3  0.02999999999999999889  9.6011020000 58.0554530000  3.1567270000
216       9   3  0.02999999999999999889  9.3615630000 58.7669390000  4.7823990000
217      10   1 -0.40000000000000002220 52.6079810000 58.6774720000 51.5893970000
218      10   2 -0.11999999999999999556 54.3128680000 57.0061150000 49.8776030000
219      10   2 -0.11999999999999999556 53.3570890000 55.8377890000 49.5780580000
220      10   2 -0.11999999999999999556 53.7821140000 58.4053220000 49.5156090000
221      10   2 -0.11999999999999999556 52.9491400000 55.7037540000 48.1041690000
222      10   2  0.14000000000000001332 52.4585750000 58.7652330000 50.1789460000
223      10   2 -0.17999999999999999334 52.0866710000 54.4631920000 47.8397810000
224      10   2  0.11000000000000000056 51.4180500000 58.9726090000 52.2940890000
225      10   3  0.05999999999999999778 55.2559250000 56.8441960000 49.3360670000
226      10   3  0.05999999999999999778 54.5581070000 56.9950590000 50.9467900000
227      10   3  0.05999999999999999778 53.8443810000 54.9042210000 49.8964150000
228      10   3  0.05999999999999999778 52.4549930000 55.9288360000 50.1995030000
229      10   3  0.05999999999999999778 53.6505800000 58.4973180000 48.4289900000
230      10   3  0.05999999999999999778 54.5300290000 59.1553300000 49.8043710000
231      10   3  0.05999999999999999778 52.3980970000 56.5995760000 47.7859280000
232      10   3  0.05999999999999999778 53.8543730000 55.6641520000 47.4805780000
233      10   3  0.02999999999999999889 51.6542240000 58.0847930000 49.8472730000
234      10   3  0.02999999999999999889 52.1570240000 59.7891350000 49.8954300000
235      10   3  0.05999999999999999778 51.1651830000 54.4915330000 48.4348250000
236      10   3  0.05999999999999999778 51.8012120000 54.3882400000 46.7832830000
237      10   3  0.05999999999999999778 52.6251320000 53.5450720000 48.1079180000
238      10   3  0.02999999999999999889 51.6414930000 58.8750040000 53.3600840000
239      10   3  0.02999999999999999889 51.0715720000 59.9999940000 52.0913170000
240      10   3  0.02999999999999999889 50.6091010000 58.2711610000 52.0308390000
241      11   1 -0.40000000000000002220 35.9510510000 40.6604190000  4.8042560000
242      11   2 -0.11999999999999999556 36.6087100000 43.4368510000  4.1048150000
243      11   2 -0.11999999999999999556 36.5028770000 43.3765440000  2.5707390000
244      11   2 -0.11999999999999999556 35.3543790000 42.9825820000  4.8734580000
245      11   2 -0.11999999999999999556 35.3773410000 44.2309060000  1.9707640000
246      11   2  0.14000000000000001332 34.8915630000 41.5698270000  4.5399430000
247      11   2 -0.17999999999999999334 35.3827330000 44.2234190000  0.4369240000
248      11   2  0.11000000000000000056 35.6214250000 39.3192060000  4.5007260000
249      11   3  0.05999999999999999778 36.8436910000 44.4676560000  4.4065810000
250      11   3  0.05999999999999999778 37.4542050000 42.8150490000  4.4240720000
251      11   3  0.05999999999999999778 37.4624840000 43.7072510000  2.1463090000
252      11   3  0.05999999999999999778 36.3797640000 42.3327370000  2.2489140000
253      11   3  0.05999999999999999778 34.5165830000 43.6661770000  4.6803210000
254      11   3  0.05999999999999999778 35.5586530000 43.0353490000  5.9508440000
255      11   3  0.05999999999999999778 34.4030520000 43.8704890000  2.3289320000
256      11   3  0.05999999999999999778 35.4739460000 45.2640950000  2.3355490000
257      11   3  0.02999999999999999889 34.5922250000 41.4937630000  3.4794740000
258      11   3  0.02999999999999999889 34.0082280000 41.3054650000  5.1478260000
259      11   3  0.05999999999999999778 35.2643290000 43.2039190000  0.0488280000
260      11   3  0.05999999999999999778 34.5686980000 44.8343930000  0.0278390000
261      11   3  0.05999999999999999778 36.3286880000 44.6185670000  0.0447420000
262      11   3  0.02999999999999999889 36.4980990000 38.7098560000  4.7372250000
263      11   3  0.02999999999999999889 34.7654500000 38.9668810000  5.1006070000
264      11   3  0.02999999999999999889 35.3758090000 39.1961990000  3.4328910000
265      12   1 -0.40000000000000002220 46.1775760000 45.1802810000 27.3848980000
266      12   2 -0.11999999999999999556 48.2967420000 43.2379250000 27.9904580000
267      12   2 -0.11999999999999999556 47.9288390000 42.1030800000 27.0183470000
268      12   2 -0.11999999999999999556 48.5093810000 44.6195990000 27.3452580000
269      12   2 -0.11999999999999999556 48.9672580000 41.8372100000 25.9193780000
270      12   2  0.14000000000000001332 47.3190710000 45.1259790000 26.5402440000
271      12   2 -0.17999999999999999334 48.6075070000 40.6288790000 25.0457280000
272      12   2  0.11000000000000000056 45.0113340000 45.6188540000 26.7161920000
273      12   3  0.05999999999999999778 49.2153020000 42.9635980000 28.5288150000
274      12   3  0.05999999999999999778 47.5047070000 43.3263190000 28.7443090000
275      12   3  0.05999999999999999778 47.7883710000 41.1814990000 27.6025660000
276      12   3  0.05999999999999999778 46.9539500000 42.3131470000 26.5560420000
277      12   3  0.05999999999999999778 49.3834870000 44.6029420000 26.6803020000
278      12   3  0.05999999999999999778 48.7307700000 45.3504250000 28.1340250000
279      12   3  0.05999999999999999778 49.0709010000 42.7251190000 25.2803950000
280      12   3  0.05999999999999999778 49.9518330000 41.6777880000 26.3831440000
281      12   3  0.02999999999999999889 47.1144170000 44.4629770000 25.6808670000
282      12   3  0.02999999999999999889 47.5343560000 46.1299180000 26.1334900000
283      12   3  0.05999999999999999778 47.6377800000 40.7750470000 24.5535040000
284      12   3  0.05999999999999999778 49.3579400000 40.4588560000 24.2639130000
285      12   3  0.05999999999999999778 48.5376510000 39.7142470000 25.6485120000
286      12   3  0.02999999999999999889 44.2004960000 45.6222970000 27.4498990000
287      12   3  0.02999999999999999889 45.1353600000 46.6375160000 26.3116810000
288      12   3  0.02999999999999999889 44.7432950000 44.9425620000 25.8876310000
289      13   1 -0.40000000000000002220  3.0876660000 49.9003370000 37.2135190000
290      13   2 -0.11999999999999999556  1.5954760000 51.6137580000 35.3512970000
291      13   2 -0.11999999999999999556  1.9756260000 50.9705250000 34.0059480000
292      13   2 -0.11999999999999999556  0.9688360000 50.6620290000 36.3866990000
293      13   2 -0.11999999999999999556  0.8057000000 50.3262890000 33.2490020000
294      13   2  0.14000000000000001332  1.8294620000 49.4521050000 36.7283290000
295      13   2 -0.17999999999999999334  1.2142200000 49.7975440000 31.8683180000
296      13   2  0.11000000000000000056  3.9683270000 48.8420560000 37.5361830000
297      13   3  0.05999999999999999778  0.8895800000 52.4363750000 35.1673190000
298      13   3  0.05999999999999999778  2.4936160000 52.0627340000 35.7931000000
299      13   3  0.05999999999999999778  2.4249820000 51.7463370000 33.3683370000
300      13   3  0.05999999999999999778  2.7647920000 50.2217540000 34.1634940000
301      13   3  0.05999999999999999778 -0.0036670000 50.2946330000 36.0320670000
302      13   3  0.05999999999999999778  0.7734310000 51.2208280000 37.3112710000
303      13   3  0.05999999999999999778  0.3868570000 49.5007230000 33.8409800000
304      13   3  0.05999999999999999778 -0.0029090000 51.0636340000 33.1378520000
305      13   3  0.02999999999999999889  1.9798210000 48.8126910000 35.8403390000
306      13   3  0.02999999999999999889  1.3292820000 48.8336520000 37.4945060000
307      13   3  0.05999999999999999778  2.0053530000 49.0422060000 31.9554500000
308      13   3  0.05999999999999999778  0.3667940000 49.3365760000 31.3461390000
309      13   3  0.05999999999999999778  1.5986510000 50.6072280000 31.2347520000
310      13   3  0.02999999999999999889  4.8977600000 49.2933350000 37.8943720000
311      13   3  0.02999999999999999889  3.5527150000 48.1966170000 38.3282430000
312      13   3  0.02999999999999999889  4.1885170000 48.2177760000 36.6544120000
313      14   1 -0.40000000000000002220 49.3497650000 24.0831310000 32.4884650000
314      14   2 -0.11999999999999999556 51.7252560000 23.7265510000 30.7972520000
315      14   2 -0.11999999999999999556 51.0900770000 23.1016950000 29.5425290000
316      14   2 -0.11999999999999999556 51.1350090000 25.0797380000 31.2343020000
317      14   2 -0.11999999999999999556 51.1828580000 23.9664450000 28.2774860000
318      14   2  0.14000000000000001332 49.6335330000 25.0554800000 31.4917660000
319      14   2 -0.17999999999999999334 50.6349780000 23.2554460000 27.0336780000
320      14   2  0.11000000000000000056 47.9704440000 23.9709650000 32.7792030000
321      14   3  0.05999999999999999778 52.8026780000 23.8601440000 30.6236150000
322      14   3  0.05999999999999999778 51.6260810000 23.0204040000 31.6308870000
323      14   3  0.05999999999999999778 51.5852200000 22.1384040000 29.3495050000
324      14   3  0.05999999999999999778 50.0367050000 22.8593890000 29.7424170000
325      14   3  0.05999999999999999778 51.3346380000 25.8490760000 30.4761650000
326      14   3  0.05999999999999999778 51.6391160000 25.4079190000 32.1526950000
327      14   3  0.05999999999999999778 50.6332740000 24.9062890000 28.4260650000
328      14   3  0.05999999999999999778 52.2323540000 24.2494300000 28.1090810000
329      14   3  0.02999999999999999889 49.0795650000 24.8130030000 30.5674770000
330      14   3  0.02999999999999999889 49.2889690000 26.0497350000 31.8270620000