{"molecule": {"@module": "pymatgen.core.structure", "@class": "Molecule", "charge": 0, "spin_multiplicity": 1, "sites": [{"name": "N", "species": [{"element": "N", "occu": 1}], "xyz": [1.074116, -0.068298, 0.057893], "properties": {}}, {"name": "C", "species": [{"element": "C", "occu": 1}], "xyz": [3.697971, -0.068312, 0.057878], "properties": {}}, {"name": "C", "species": [{"element": "C", "occu": 1}], "xyz": [2.23511, -0.068309, 0.057877], "properties": {}}, {"name": "H", "species": [{"element": "H", "occu": 1}], "xyz": [4.076251, -1.094896, 0.014395], "properties": {}}, {"name": "H", "species": [{"element": "H", "occu": 1}], "xyz": [4.076257, 0.482633, -0.809428], "properties": {}}, {"name": "H", "species": [{"element": "H", "occu": 1}], "xyz": [4.076255, 0.407322, 0.968665], "properties": {}}]}, "smiles": "N#CC", "inchi": "InChI=1S/C2H3N/c1-2-3/h1H3", "formula_alphabetical": "C2 H3 N1", "chemsys": "C-H-N", "energy": -132.761695859, "esp": {"1": ["N", -0.50135], "2": ["C", -0.439858], "3": ["C", 0.448571], "4": ["H", 0.164399], "5": ["H", 0.164153], "6": ["H", 0.164086]}, "dipole_moment": {"X": 4.0656, "Y": -0.0, "Z": -0.0, "Tot": 4.0656}, "functional": "B3LYP", "basis": "6-31+G*", "phase": "gas", "tag": "lis", "state": "successful", "wall_time (s)": 2.4876977740204893, "version": "0.0.1", "gauss_version": "ES64L-G16RevC.01", "last_updated": "2021-12-19T18:45:01.986632", "polarizability": 26.42, "solvent": "ACN", "_id": null, "run_locs": ["/gpfs/scratch/ratwi/invited/ESP/ACN/run.json", "/gpfs/scratch/ratwi/invited/ESP/ACN/ESP/run.json"]}