{"molecule": {"@module": "pymatgen.core.structure", "@class": "Molecule", "charge": 0, "spin_multiplicity": 1, "sites": [{"name": "F", "species": [{"element": "F", "occu": 1}], "xyz": [2.749076, -3.448317, 1.425133], "properties": {}}, {"name": "F", "species": [{"element": "F", "occu": 1}], "xyz": [2.738902, -2.80454, -0.664192], "properties": {}}, {"name": "F", "species": [{"element": "F", "occu": 1}], "xyz": [0.970178, -2.506891, 0.585937], "properties": {}}, {"name": "F", "species": [{"element": "F", "occu": 1}], "xyz": [0.995073, 0.704317, 4.131128], "properties": {}}, {"name": "F", "species": [{"element": "F", "occu": 1}], "xyz": [2.772146, -0.239145, 4.971887], "properties": {}}, {"name": "F", "species": [{"element": "F", "occu": 1}], "xyz": [2.77661, 1.903958, 4.539532], "properties": {}}, {"name": "O", "species": [{"element": "O", "occu": 1}], "xyz": [2.427437, -0.794029, 2.251107], "properties": {}}, {"name": "C", "species": [{"element": "C", "occu": 1}], "xyz": [2.869927, -1.114838, 0.953663], "properties": {}}, {"name": "C", "species": [{"element": "C", "occu": 1}], "xyz": [2.882927, 0.461539, 2.696169], "properties": {}}, {"name": "C", "species": [{"element": "C", "occu": 1}], "xyz": [2.317941, -2.484404, 0.587285], "properties": {}}, {"name": "C", "species": [{"element": "C", "occu": 1}], "xyz": [2.34262, 0.694127, 4.099256], "properties": {}}, {"name": "H", "species": [{"element": "H", "occu": 1}], "xyz": [3.966753, -1.170251, 0.895584], "properties": {}}, {"name": "H", "species": [{"element": "H", "occu": 1}], "xyz": [2.504544, -0.396276, 0.205575], "properties": {}}, {"name": "H", "species": [{"element": "H", "occu": 1}], "xyz": [3.98053, 0.505208, 2.749268], "properties": {}}, {"name": "H", "species": [{"element": "H", "occu": 1}], "xyz": [2.519396, 1.280261, 2.058199], "properties": {}}]}, "smiles": "FC(F)(F)COCC(F)(F)F", "inchi": "InChI=1S/C4H4F6O/c5-3(6,7)1-11-2-4(8,9)10/h1-2H2", "formula_alphabetical": "C4 F6 H4 O1", "chemsys": "C-F-H-O", "energy": -829.151540457, "esp": {"1": ["F", -0.186869], "2": ["F", -0.222861], "3": ["F", -0.186021], "4": ["F", -0.179463], "5": ["F", -0.179905], "6": ["F", -0.217803], "7": ["O", -0.27552], "8": ["C", -0.091036], "9": ["C", -0.089346], "10": ["C", 0.585879], "11": ["C", 0.560928], "12": ["H", 0.119595], "13": ["H", 0.118808], "14": ["H", 0.122177], "15": ["H", 0.121435]}, "dipole_moment": {"X": 2.1752, "Y": 2.2641, "Z": -2.0646, "Tot": 3.7577}, "functional": "B3LYP", "basis": "6-31+G*", "phase": "gas", "tag": "lis", "state": "successful", "wall_time (s)": 7.571372856007656, "version": "0.0.1", "gauss_version": "ES64L-G16RevC.01", "last_updated": "2021-12-19T18:43:23.301953", "polarizability": 57.72, "solvent": "BTFE", "_id": null, "run_locs": ["/gpfs/scratch/ratwi/invited/ESP/BTFE/run.json", "/gpfs/scratch/ratwi/invited/ESP/BTFE/ESP/run.json"]}