{"molecule": {"@module": "pymatgen.core.structure", "@class": "Molecule", "charge": 0, "spin_multiplicity": 1, "sites": [{"name": "C", "species": [{"element": "C", "occu": 1}], "xyz": [-1.428173, 0.331878, -0.228416], "properties": {}}, {"name": "C", "species": [{"element": "C", "occu": 1}], "xyz": [-0.999019, -1.070288, 0.234965], "properties": {}}, {"name": "C", "species": [{"element": "C", "occu": 1}], "xyz": [-0.426198, 1.404558, 0.23048], "properties": {}}, {"name": "C", "species": [{"element": "C", "occu": 1}], "xyz": [0.428753, -1.401595, -0.230972], "properties": {}}, {"name": "C", "species": [{"element": "C", "occu": 1}], "xyz": [1.001576, 1.07325, -0.23545], "properties": {}}, {"name": "C", "species": [{"element": "C", "occu": 1}], "xyz": [1.430728, -0.328917, 0.227929], "properties": {}}, {"name": "H", "species": [{"element": "H", "occu": 1}], "xyz": [-1.489765, 0.344084, -1.327735], "properties": {}}, {"name": "H", "species": [{"element": "H", "occu": 1}], "xyz": [-2.434228, 0.565317, 0.145132], "properties": {}}, {"name": "H", "species": [{"element": "H", "occu": 1}], "xyz": [-1.037398, -1.113136, 1.33458], "properties": {}}, {"name": "H", "species": [{"element": "H", "occu": 1}], "xyz": [-1.70519, -1.826349, -0.133631], "properties": {}}, {"name": "H", "species": [{"element": "H", "occu": 1}], "xyz": [-0.728866, 2.392676, -0.141233], "properties": {}}, {"name": "H", "species": [{"element": "H", "occu": 1}], "xyz": [-0.44109, 1.463623, 1.329918], "properties": {}}, {"name": "H", "species": [{"element": "H", "occu": 1}], "xyz": [0.731422, -2.389715, 0.140735], "properties": {}}, {"name": "H", "species": [{"element": "H", "occu": 1}], "xyz": [0.443642, -1.460652, -1.33041], "properties": {}}, {"name": "H", "species": [{"element": "H", "occu": 1}], "xyz": [1.707746, 1.829309, 0.13315], "properties": {}}, {"name": "H", "species": [{"element": "H", "occu": 1}], "xyz": [1.039961, 1.1161, -1.335065], "properties": {}}, {"name": "H", "species": [{"element": "H", "occu": 1}], "xyz": [1.492316, -0.341127, 1.327248], "properties": {}}, {"name": "H", "species": [{"element": "H", "occu": 1}], "xyz": [2.436783, -0.562356, -0.145616], "properties": {}}]}, "smiles": "C1CCCCC1", "inchi": "InChI=1S/C6H12/c1-2-4-6-5-3-1/h1-6H2", "formula_alphabetical": "C6 H12", "chemsys": "C-H", "energy": -235.886370148, "esp": {"1": ["C", 0.014492], "2": ["C", 0.001938], "3": ["C", 0.005642], "4": ["C", 0.012691], "5": ["C", 0.011225], "6": ["C", -0.001782], "7": ["H", 0.001204], "8": ["H", -0.011619], "9": ["H", 0.003835], "10": ["H", -0.009686], "11": ["H", -0.010974], "12": ["H", 0.002789], "13": ["H", -0.01063], "14": ["H", 0.002036], "15": ["H", -0.010399], "16": ["H", 0.002444], "17": ["H", 0.005154], "18": ["H", -0.008362]}, "dipole_moment": {"X": 0.0, "Y": 0.0, "Z": 0.0, "Tot": 0.0}, "functional": "B3LYP", "basis": "6-31+G*", "phase": "gas", "tag": "lis", "state": "successful", "wall_time (s)": 5.312587414984591, "version": "0.0.1", "gauss_version": "ES64L-G16RevC.01", "last_updated": "2021-12-19T18:41:39.099973", "polarizability": 67.61, "solvent": "cyclohexane", "_id": null, "run_locs": ["/gpfs/scratch/ratwi/invited/ESP/cyclohexane/run.json", "/gpfs/scratch/ratwi/invited/ESP/cyclohexane/ESP/run.json"]}