{"molecule": {"@module": "pymatgen.core.structure", "@class": "Molecule", "charge": 0, "spin_multiplicity": 1, "sites": [{"name": "O", "species": [{"element": "O", "occu": 1}], "xyz": [0.963056, -0.02616, -0.20709], "properties": {}}, {"name": "C", "species": [{"element": "C", "occu": 1}], "xyz": [-0.964584, -1.356623, 0.303354], "properties": {}}, {"name": "C", "species": [{"element": "C", "occu": 1}], "xyz": [2.682234, 1.519596, -0.837284], "properties": {}}, {"name": "C", "species": [{"element": "C", "occu": 1}], "xyz": [0.557723, -1.269025, 0.347554], "properties": {}}, {"name": "C", "species": [{"element": "C", "occu": 1}], "xyz": [2.371023, 0.159994, -0.223939], "properties": {}}, {"name": "C", "species": [{"element": "C", "occu": 1}], "xyz": [-1.568364, -1.224401, -1.10471], "properties": {}}, {"name": "C", "species": [{"element": "C", "occu": 1}], "xyz": [2.129458, 2.698654, -0.026633], "properties": {}}, {"name": "C", "species": [{"element": "C", "occu": 1}], "xyz": [-1.129723, -2.324276, -2.080031], "properties": {}}, {"name": "C", "species": [{"element": "C", "occu": 1}], "xyz": [2.456172, 4.05527, -0.661072], "properties": {}}, {"name": "H", "species": [{"element": "H", "occu": 1}], "xyz": [-1.259517, -2.319178, 0.747083], "properties": {}}, {"name": "H", "species": [{"element": "H", "occu": 1}], "xyz": [-1.37367, -0.568434, 0.949353], "properties": {}}, {"name": "H", "species": [{"element": "H", "occu": 1}], "xyz": [3.774446, 1.611423, -0.931202], "properties": {}}, {"name": "H", "species": [{"element": "H", "occu": 1}], "xyz": [2.272303, 1.54508, -1.856704], "properties": {}}, {"name": "H", "species": [{"element": "H", "occu": 1}], "xyz": [1.017851, -2.097964, -0.217452], "properties": {}}, {"name": "H", "species": [{"element": "H", "occu": 1}], "xyz": [0.911105, -1.349502, 1.390288], "properties": {}}, {"name": "H", "species": [{"element": "H", "occu": 1}], "xyz": [2.768692, 0.102591, 0.805704], "properties": {}}, {"name": "H", "species": [{"element": "H", "occu": 1}], "xyz": [2.848141, -0.645779, -0.808775], "properties": {}}, {"name": "H", "species": [{"element": "H", "occu": 1}], "xyz": [-2.663191, -1.237964, -1.012866], "properties": {}}, {"name": "H", "species": [{"element": "H", "occu": 1}], "xyz": [-1.298257, -0.243251, -1.513218], "properties": {}}, {"name": "H", "species": [{"element": "H", "occu": 1}], "xyz": [1.043623, 2.582632, 0.072804], "properties": {}}, {"name": "H", "species": [{"element": "H", "occu": 1}], "xyz": [2.541639, 2.658537, 0.992831], "properties": {}}, {"name": "H", "species": [{"element": "H", "occu": 1}], "xyz": [-1.349336, -3.323201, -1.679129], "properties": {}}, {"name": "H", "species": [{"element": "H", "occu": 1}], "xyz": [-1.650967, -2.22838, -3.040139], "properties": {}}, {"name": "H", "species": [{"element": "H", "occu": 1}], "xyz": [-0.053981, -2.275412, -2.286249], "properties": {}}, {"name": "H", "species": [{"element": "H", "occu": 1}], "xyz": [2.029288, 4.130952, -1.669695], "properties": {}}, {"name": "H", "species": [{"element": "H", "occu": 1}], "xyz": [2.053523, 4.8838, -0.065859], "properties": {}}, {"name": "H", "species": [{"element": "H", "occu": 1}], "xyz": [3.540878, 4.202604, -0.748832], "properties": {}}]}, "smiles": "O(CCCC)CCCC", "inchi": "InChI=1S/C8H18O/c1-3-5-7-9-8-6-4-2/h3-8H2,1-2H3", "formula_alphabetical": "C8 H18 O1", "chemsys": "C-H-O", "energy": -390.930251876, "esp": {"1": ["O", -0.32433], "2": ["C", -0.175797], "3": ["C", -0.081925], "4": ["C", 0.180151], "5": ["C", 0.046403], "6": ["C", 0.328045], "7": ["C", 0.311122], "8": ["C", -0.293406], "9": ["C", -0.32951], "10": ["H", 0.038177], "11": ["H", 0.033576], "12": ["H", 0.015646], "13": ["H", 0.034683], "14": ["H", -0.005776], "15": ["H", 0.009796], "16": ["H", 0.02019], "17": ["H", 0.041128], "18": ["H", -0.05981], "19": ["H", -0.068606], "20": ["H", -0.057889], "21": ["H", -0.047349], "22": ["H", 0.051955], "23": ["H", 0.054932], "24": ["H", 0.078914], "25": ["H", 0.071633], "26": ["H", 0.067239], "27": ["H", 0.060805]}, "dipole_moment": {"X": 0.5956, "Y": -0.6594, "Z": 0.402, "Tot": 0.9753}, "functional": "B3LYP", "basis": "6-31+G*", "phase": "gas", "tag": "lis", "state": "successful", "wall_time (s)": 10.33978022399242, "version": "0.0.1", "gauss_version": "ES64L-G16RevC.01", "last_updated": "2021-12-19T18:39:31.827490", "polarizability": 100.46, "solvent": "DBE", "_id": null, "run_locs": ["/gpfs/scratch/ratwi/invited/ESP/DBE/run.json", "/gpfs/scratch/ratwi/invited/ESP/DBE/ESP/run.json"]}