{"molecule": {"@module": "pymatgen.core.structure", "@class": "Molecule", "charge": 0, "spin_multiplicity": 1, "sites": [{"name": "O", "species": [{"element": "O", "occu": 1}], "xyz": [5.022111, 0.526691, 0.498336], "properties": {}}, {"name": "O", "species": [{"element": "O", "occu": 1}], "xyz": [-1.201697, 2.660908, -0.669016], "properties": {}}, {"name": "O", "species": [{"element": "O", "occu": 1}], "xyz": [1.695593, 1.590295, 1.358639], "properties": {}}, {"name": "C", "species": [{"element": "C", "occu": 1}], "xyz": [7.310931, -0.094808, 0.146963], "properties": {}}, {"name": "C", "species": [{"element": "C", "occu": 1}], "xyz": [-2.112497, 4.925186, -0.417283], "properties": {}}, {"name": "C", "species": [{"element": "C", "occu": 1}], "xyz": [6.27257, 0.372044, 1.15896], "properties": {}}, {"name": "C", "species": [{"element": "C", "occu": 1}], "xyz": [-2.086265, 3.483247, 0.095743], "properties": {}}, {"name": "C", "species": [{"element": "C", "occu": 1}], "xyz": [7.576194, 0.919768, -0.972584], "properties": {}}, {"name": "C", "species": [{"element": "C", "occu": 1}], "xyz": [-3.124326, 5.822605, 0.315323], "properties": {}}, {"name": "C", "species": [{"element": "C", "occu": 1}], "xyz": [3.98549, 0.983439, 1.348285], "properties": {}}, {"name": "C", "species": [{"element": "C", "occu": 1}], "xyz": [0.153382, 2.668779, -0.233284], "properties": {}}, {"name": "C", "species": [{"element": "C", "occu": 1}], "xyz": [2.721713, 1.09393, 0.508685], "properties": {}}, {"name": "C", "species": [{"element": "C", "occu": 1}], "xyz": [0.387822, 1.559496, 0.801173], "properties": {}}, {"name": "C", "species": [{"element": "C", "occu": 1}], "xyz": [8.627352, 0.429987, -1.974994], "properties": {}}, {"name": "C", "species": [{"element": "C", "occu": 1}], "xyz": [-2.777504, 6.091898, 1.786969], "properties": {}}, {"name": "H", "species": [{"element": "H", "occu": 1}], "xyz": [8.245005, -0.304508, 0.688762], "properties": {}}, {"name": "H", "species": [{"element": "H", "occu": 1}], "xyz": [6.974212, -1.047132, -0.285921], "properties": {}}, {"name": "H", "species": [{"element": "H", "occu": 1}], "xyz": [-1.107045, 5.361845, -0.331962], "properties": {}}, {"name": "H", "species": [{"element": "H", "occu": 1}], "xyz": [-2.350391, 4.890605, -1.488246], "properties": {}}, {"name": "H", "species": [{"element": "H", "occu": 1}], "xyz": [6.577423, 1.334518, 1.607334], "properties": {}}, {"name": "H", "species": [{"element": "H", "occu": 1}], "xyz": [6.172689, -0.360494, 1.978093], "properties": {}}, {"name": "H", "species": [{"element": "H", "occu": 1}], "xyz": [-3.079884, 3.030566, -0.007066], "properties": {}}, {"name": "H", "species": [{"element": "H", "occu": 1}], "xyz": [-1.815746, 3.445261, 1.161087], "properties": {}}, {"name": "H", "species": [{"element": "H", "occu": 1}], "xyz": [6.633426, 1.130895, -1.491351], "properties": {}}, {"name": "H", "species": [{"element": "H", "occu": 1}], "xyz": [7.905793, 1.869878, -0.526041], "properties": {}}, {"name": "H", "species": [{"element": "H", "occu": 1}], "xyz": [-3.1884, 6.780936, -0.217059], "properties": {}}, {"name": "H", "species": [{"element": "H", "occu": 1}], "xyz": [-4.125406, 5.371089, 0.249612], "properties": {}}, {"name": "H", "species": [{"element": "H", "occu": 1}], "xyz": [3.819658, 0.282192, 2.182329], "properties": {}}, {"name": "H", "species": [{"element": "H", "occu": 1}], "xyz": [4.233056, 1.967939, 1.777834], "properties": {}}, {"name": "H", "species": [{"element": "H", "occu": 1}], "xyz": [0.437806, 3.638877, 0.200465], "properties": {}}, {"name": "H", "species": [{"element": "H", "occu": 1}], "xyz": [0.767394, 2.508259, -1.125639], "properties": {}}, {"name": "H", "species": [{"element": "H", "occu": 1}], "xyz": [2.907672, 1.765777, -0.341819], "properties": {}}, {"name": "H", "species": [{"element": "H", "occu": 1}], "xyz": [2.450762, 0.103977, 0.108953], "properties": {}}, {"name": "H", "species": [{"element": "H", "occu": 1}], "xyz": [0.177912, 0.579436, 0.344561], "properties": {}}, {"name": "H", "species": [{"element": "H", "occu": 1}], "xyz": [-0.298726, 1.692381, 1.643665], "properties": {}}, {"name": "H", "species": [{"element": "H", "occu": 1}], "xyz": [8.307187, -0.503156, -2.456561], "properties": {}}, {"name": "H", "species": [{"element": "H", "occu": 1}], "xyz": [8.802846, 1.169734, -2.765393], "properties": {}}, {"name": "H", "species": [{"element": "H", "occu": 1}], "xyz": [9.588071, 0.234633, -1.480276], "properties": {}}, {"name": "H", "species": [{"element": "H", "occu": 1}], "xyz": [-1.771992, 6.523206, 1.87934], "properties": {}}, {"name": "H", "species": [{"element": "H", "occu": 1}], "xyz": [-3.485939, 6.798371, 2.235792], "properties": {}}, {"name": "H", "species": [{"element": "H", "occu": 1}], "xyz": [-2.802232, 5.176529, 2.389823], "properties": {}}]}, "smiles": "O(CCCC)CCOCCOCCCC", "inchi": "InChI=1S/C12H26O3/c1-3-5-7-13-9-11-15-12-10-14-8-6-4-2/h3-12H2,1-2H3", "formula_alphabetical": "C12 H26 O3", "chemsys": "C-H-O", "energy": -698.598619229, "esp": {"1": ["O", -0.475247], "2": ["O", -0.473405], "3": ["O", -0.578462], "4": ["C", -0.07704], "5": ["C", -0.005616], "6": ["C", 0.157041], "7": ["C", 0.089632], "8": ["C", 0.291255], "9": ["C", 0.092153], "10": ["C", 0.220974], "11": ["C", 0.069982], "12": ["C", 0.305206], "13": ["C", 0.278489], "14": ["C", -0.367539], "15": ["C", -0.143596], "16": ["H", 0.007699], "17": ["H", 0.036818], "18": ["H", 0.008339], "19": ["H", 0.02518], "20": ["H", 0.004475], "21": ["H", 0.019337], "22": ["H", 0.06141], "23": ["H", 0.046974], "24": ["H", -0.040944], "25": ["H", -0.040596], "26": ["H", -0.016394], "27": ["H", -0.016385], "28": ["H", 0.011301], "29": ["H", 0.014567], "30": ["H", 0.067978], "31": ["H", 0.078641], "32": ["H", -0.023851], "33": ["H", 0.004756], "34": ["H", 0.001228], "35": ["H", 0.037072], "36": ["H", 0.081295], "37": ["H", 0.078253], "38": ["H", 0.075847], "39": ["H", 0.038014], "40": ["H", 0.036242], "41": ["H", 0.018918]}, "dipole_moment": {"X": 0.2124, "Y": 0.8609, "Z": 0.9164, "Tot": 1.2751}, "functional": "B3LYP", "basis": "6-31+G*", "phase": "gas", "tag": "lis", "state": "successful", "wall_time (s)": 20.520990573015297, "version": "0.0.1", "gauss_version": "ES64L-G16RevC.01", "last_updated": "2021-12-19T18:41:06.358067", "polarizability": 157.19, "solvent": "DEGDBE", "_id": null, "run_locs": ["/gpfs/scratch/ratwi/invited/ESP/DEGDBE/run.json", "/gpfs/scratch/ratwi/invited/ESP/DEGDBE/ESP/run.json"]}