{"molecule": {"@module": "pymatgen.core.structure", "@class": "Molecule", "charge": 0, "spin_multiplicity": 1, "sites": [{"name": "O", "species": [{"element": "O", "occu": 1}], "xyz": [0.98734, 0.056563, -0.110758], "properties": {}}, {"name": "O", "species": [{"element": "O", "occu": 1}], "xyz": [-1.154899, 2.888239, -0.690304], "properties": {}}, {"name": "O", "species": [{"element": "O", "occu": 1}], "xyz": [3.810033, -2.16638, -0.294858], "properties": {}}, {"name": "C", "species": [{"element": "C", "occu": 1}], "xyz": [0.603305, 1.299338, -0.676364], "properties": {}}, {"name": "C", "species": [{"element": "C", "occu": 1}], "xyz": [2.262076, -0.389452, -0.544227], "properties": {}}, {"name": "C", "species": [{"element": "C", "occu": 1}], "xyz": [-0.771103, 1.64638, -0.125171], "properties": {}}, {"name": "C", "species": [{"element": "C", "occu": 1}], "xyz": [2.536269, -1.720694, 0.138369], "properties": {}}, {"name": "C", "species": [{"element": "C", "occu": 1}], "xyz": [-2.428167, 3.327071, -0.253259], "properties": {}}, {"name": "C", "species": [{"element": "C", "occu": 1}], "xyz": [4.186874, -3.407183, 0.2737], "properties": {}}, {"name": "H", "species": [{"element": "H", "occu": 1}], "xyz": [1.322907, 2.090204, -0.410992], "properties": {}}, {"name": "H", "species": [{"element": "H", "occu": 1}], "xyz": [0.55945, 1.233418, -1.775205], "properties": {}}, {"name": "H", "species": [{"element": "H", "occu": 1}], "xyz": [2.281092, -0.519499, -1.638044], "properties": {}}, {"name": "H", "species": [{"element": "H", "occu": 1}], "xyz": [3.044755, 0.337228, -0.273923], "properties": {}}, {"name": "H", "species": [{"element": "H", "occu": 1}], "xyz": [-1.490594, 0.854274, -0.390054], "properties": {}}, {"name": "H", "species": [{"element": "H", "occu": 1}], "xyz": [-0.727003, 1.711194, 0.974428], "properties": {}}, {"name": "H", "species": [{"element": "H", "occu": 1}], "xyz": [2.516189, -1.590343, 1.232838], "properties": {}}, {"name": "H", "species": [{"element": "H", "occu": 1}], "xyz": [1.752307, -2.447219, -0.131494], "properties": {}}, {"name": "H", "species": [{"element": "H", "occu": 1}], "xyz": [-3.217629, 2.609963, -0.531319], "properties": {}}, {"name": "H", "species": [{"element": "H", "occu": 1}], "xyz": [-2.4505, 3.47065, 0.839304], "properties": {}}, {"name": "H", "species": [{"element": "H", "occu": 1}], "xyz": [-2.623405, 4.283762, -0.744755], "properties": {}}, {"name": "H", "species": [{"element": "H", "occu": 1}], "xyz": [4.244585, -3.344684, 1.372603], "properties": {}}, {"name": "H", "species": [{"element": "H", "occu": 1}], "xyz": [3.477215, -4.205642, 0.002282], "properties": {}}, {"name": "H", "species": [{"element": "H", "occu": 1}], "xyz": [5.174592, -3.654929, -0.123756], "properties": {}}]}, "smiles": "O(CCOC)CCOC", "inchi": "InChI=1S/C6H14O3/c1-7-3-5-9-6-4-8-2/h3-6H2,1-2H3", "formula_alphabetical": "C6 H14 O3", "chemsys": "C-H-O", "energy": -462.708822073, "esp": {"1": ["O", -0.639547], "2": ["O", -0.494271], "3": ["O", -0.502551], "4": ["C", 0.349915], "5": ["C", 0.326228], "6": ["C", 0.260973], "7": ["C", 0.315102], "8": ["C", 0.125248], "9": ["C", 0.095638], "10": ["H", -0.016754], "11": ["H", -0.014893], "12": ["H", -0.01413], "13": ["H", -0.016507], "14": ["H", 0.011462], "15": ["H", 0.011607], "16": ["H", 0.000819], "17": ["H", -0.000252], "18": ["H", 0.012591], "19": ["H", 0.015301], "20": ["H", 0.061632], "21": ["H", 0.020689], "22": ["H", 0.020089], "23": ["H", 0.071611]}, "dipole_moment": {"X": -0.8207, "Y": -0.7344, "Z": 0.9208, "Tot": 1.4356}, "functional": "B3LYP", "basis": "6-31+G*", "phase": "gas", "tag": "lis", "state": "successful", "wall_time (s)": 7.821884179022163, "version": "0.0.1", "gauss_version": "ES64L-G16RevC.01", "last_updated": "2021-12-19T18:40:44.147389", "polarizability": 86.8, "solvent": "DEGDME", "_id": null, "run_locs": ["/gpfs/scratch/ratwi/invited/ESP/DEGDME/run.json", "/gpfs/scratch/ratwi/invited/ESP/DEGDME/ESP/run.json"]}