{"molecule": {"@module": "pymatgen.core.structure", "@class": "Molecule", "charge": 0, "spin_multiplicity": 1, "sites": [{"name": "S", "species": [{"element": "S", "occu": 1}], "xyz": [1.210009, 0.06583, -0.137378], "properties": {}}, {"name": "O", "species": [{"element": "O", "occu": 1}], "xyz": [0.434467, 0.050072, 1.329368], "properties": {}}, {"name": "O", "species": [{"element": "O", "occu": 1}], "xyz": [0.431074, 1.475791, -0.653867], "properties": {}}, {"name": "O", "species": [{"element": "O", "occu": 1}], "xyz": [2.608975, 0.399632, 0.171588], "properties": {}}, {"name": "C", "species": [{"element": "C", "occu": 1}], "xyz": [-0.992962, -0.225645, 1.302385], "properties": {}}, {"name": "C", "species": [{"element": "C", "occu": 1}], "xyz": [0.94573, 2.036281, -1.887435], "properties": {}}, {"name": "C", "species": [{"element": "C", "occu": 1}], "xyz": [-1.419578, -0.481914, 2.73644], "properties": {}}, {"name": "C", "species": [{"element": "C", "occu": 1}], "xyz": [0.090114, 3.246831, -2.216911], "properties": {}}, {"name": "H", "species": [{"element": "H", "occu": 1}], "xyz": [-1.505101, 0.641853, 0.873462], "properties": {}}, {"name": "H", "species": [{"element": "H", "occu": 1}], "xyz": [-1.187072, -1.101597, 0.667665], "properties": {}}, {"name": "H", "species": [{"element": "H", "occu": 1}], "xyz": [1.995045, 2.316546, -1.740435], "properties": {}}, {"name": "H", "species": [{"element": "H", "occu": 1}], "xyz": [0.890099, 1.284226, -2.688123], "properties": {}}, {"name": "H", "species": [{"element": "H", "occu": 1}], "xyz": [-1.203269, 0.390566, 3.361292], "properties": {}}, {"name": "H", "species": [{"element": "H", "occu": 1}], "xyz": [-2.497658, -0.679053, 2.77245], "properties": {}}, {"name": "H", "species": [{"element": "H", "occu": 1}], "xyz": [-0.890206, -1.346268, 3.150174], "properties": {}}, {"name": "H", "species": [{"element": "H", "occu": 1}], "xyz": [0.143977, 3.983136, -1.408451], "properties": {}}, {"name": "H", "species": [{"element": "H", "occu": 1}], "xyz": [0.448324, 3.715306, -3.141357], "properties": {}}, {"name": "H", "species": [{"element": "H", "occu": 1}], "xyz": [-0.956757, 2.956608, -2.355447], "properties": {}}]}, "smiles": "S(=O)(OCC)OCC", "inchi": "InChI=1S/C4H10O3S/c1-3-6-8(5)7-4-2/h3-4H2,1-2H3", "formula_alphabetical": "C4 H10 O3 S1", "chemsys": "C-H-O-S", "energy": -782.267794707, "esp": {"1": ["S", 0.384846], "2": ["O", -0.267179], "3": ["O", -0.328331], "4": ["O", -0.364914], "5": ["C", 0.358347], "6": ["C", 0.28825], "7": ["C", -0.301192], "8": ["C", -0.32651], "9": ["H", -0.01424], "10": ["H", -0.019982], "11": ["H", 0.046169], "12": ["H", 0.001726], "13": ["H", 0.088499], "14": ["H", 0.080305], "15": ["H", 0.088434], "16": ["H", 0.107756], "17": ["H", 0.082671], "18": ["H", 0.095344]}, "dipole_moment": {"X": -3.4833, "Y": -0.1355, "Z": -1.8209, "Tot": 3.9328}, "functional": "B3LYP", "basis": "6-31+G*", "phase": "gas", "tag": "lis", "state": "successful", "wall_time (s)": 7.5162582590128295, "version": "0.0.1", "gauss_version": "ES64L-G16RevC.01", "last_updated": "2021-12-19T18:42:40.227887", "polarizability": 83.0, "solvent": "DES", "_id": null, "run_locs": ["/gpfs/scratch/ratwi/invited/ESP/DES/run.json", "/gpfs/scratch/ratwi/invited/ESP/DES/ESP/run.json"]}