{"molecule": {"@module": "pymatgen.core.structure", "@class": "Molecule", "charge": 0, "spin_multiplicity": 1, "sites": [{"name": "F", "species": [{"element": "F", "occu": 1}], "xyz": [1.389839, -4.488941, 0.560924], "properties": {}}, {"name": "F", "species": [{"element": "F", "occu": 1}], "xyz": [3.351683, -4.673406, -0.457198], "properties": {}}, {"name": "O", "species": [{"element": "O", "occu": 1}], "xyz": [2.287355, -1.824707, 1.485043], "properties": {}}, {"name": "C", "species": [{"element": "C", "occu": 1}], "xyz": [0.562996, -0.758458, 2.761281], "properties": {}}, {"name": "C", "species": [{"element": "C", "occu": 1}], "xyz": [0.874317, -1.572216, 1.51262], "properties": {}}, {"name": "C", "species": [{"element": "C", "occu": 1}], "xyz": [2.75853, -2.539273, 0.364703], "properties": {}}, {"name": "C", "species": [{"element": "C", "occu": 1}], "xyz": [0.86024, -1.513888, 4.06181], "properties": {}}, {"name": "C", "species": [{"element": "C", "occu": 1}], "xyz": [2.696026, -4.04464, 0.579402], "properties": {}}, {"name": "H", "species": [{"element": "H", "occu": 1}], "xyz": [0.591623, -1.016562, 0.603995], "properties": {}}, {"name": "H", "species": [{"element": "H", "occu": 1}], "xyz": [0.319086, -2.520135, 1.520162], "properties": {}}, {"name": "H", "species": [{"element": "H", "occu": 1}], "xyz": [1.140672, 0.174518, 2.725311], "properties": {}}, {"name": "H", "species": [{"element": "H", "occu": 1}], "xyz": [-0.499043, -0.479252, 2.72095], "properties": {}}, {"name": "H", "species": [{"element": "H", "occu": 1}], "xyz": [3.810503, -2.268285, 0.224551], "properties": {}}, {"name": "H", "species": [{"element": "H", "occu": 1}], "xyz": [2.205621, -2.291891, -0.554342], "properties": {}}, {"name": "H", "species": [{"element": "H", "occu": 1}], "xyz": [1.921113, -1.777429, 4.12355], "properties": {}}, {"name": "H", "species": [{"element": "H", "occu": 1}], "xyz": [0.607646, -0.904957, 4.937688], "properties": {}}, {"name": "H", "species": [{"element": "H", "occu": 1}], "xyz": [0.277425, -2.442621, 4.118126], "properties": {}}, {"name": "H", "species": [{"element": "H", "occu": 1}], "xyz": [3.14207, -4.371777, 1.523211], "properties": {}}]}, "smiles": "FC(F)COCCC", "inchi": "InChI=1S/C5H10F2O/c1-2-3-8-4-5(6)7/h5H,2-4H2,1H3", "formula_alphabetical": "C5 F2 H10 O1", "chemsys": "C-F-H-O", "energy": -471.474175969, "esp": {"1": ["F", -0.24232], "2": ["F", -0.271025], "3": ["O", -0.356836], "4": ["C", 0.081617], "5": ["C", 0.098078], "6": ["C", -0.069344], "7": ["C", -0.133862], "8": ["C", 0.418588], "9": ["H", 0.027867], "10": ["H", 0.042863], "11": ["H", 0.010387], "12": ["H", -0.009316], "13": ["H", 0.103871], "14": ["H", 0.114846], "15": ["H", 0.028327], "16": ["H", 0.035584], "17": ["H", 0.035931], "18": ["H", 0.084744]}, "dipole_moment": {"X": -0.2569, "Y": 1.4586, "Z": 0.5725, "Tot": 1.5878}, "functional": "B3LYP", "basis": "6-31+G*", "phase": "gas", "tag": "lis", "state": "successful", "wall_time (s)": 7.277698988036718, "version": "0.0.1", "gauss_version": "ES64L-G16RevC.01", "last_updated": "2021-12-19T18:42:56.005183", "polarizability": 66.17, "solvent": "DFEP", "_id": null, "run_locs": ["/gpfs/scratch/ratwi/invited/ESP/DFEP/run.json", "/gpfs/scratch/ratwi/invited/ESP/DFEP/ESP/run.json"]}