{"molecule": {"@module": "pymatgen.core.structure", "@class": "Molecule", "charge": 0, "spin_multiplicity": 1, "sites": [{"name": "O", "species": [{"element": "O", "occu": 1}], "xyz": [1.116275, 0.057051, -0.115692], "properties": {}}, {"name": "C", "species": [{"element": "C", "occu": 1}], "xyz": [0.520223, 1.267157, -0.5978], "properties": {}}, {"name": "C", "species": [{"element": "C", "occu": 1}], "xyz": [2.5395, 0.009644, 0.03968], "properties": {}}, {"name": "C", "species": [{"element": "C", "occu": 1}], "xyz": [1.016714, 1.653456, -1.994882], "properties": {}}, {"name": "C", "species": [{"element": "C", "occu": 1}], "xyz": [-0.983988, 1.011723, -0.580022], "properties": {}}, {"name": "C", "species": [{"element": "C", "occu": 1}], "xyz": [3.059203, 1.051331, 1.035857], "properties": {}}, {"name": "C", "species": [{"element": "C", "occu": 1}], "xyz": [2.849459, -1.413972, 0.492962], "properties": {}}, {"name": "H", "species": [{"element": "H", "occu": 1}], "xyz": [0.744579, 2.088257, 0.101965], "properties": {}}, {"name": "H", "species": [{"element": "H", "occu": 1}], "xyz": [3.018943, 0.178333, -0.937999], "properties": {}}, {"name": "H", "species": [{"element": "H", "occu": 1}], "xyz": [0.86091, 0.822555, -2.693689], "properties": {}}, {"name": "H", "species": [{"element": "H", "occu": 1}], "xyz": [0.462071, 2.525126, -2.362214], "properties": {}}, {"name": "H", "species": [{"element": "H", "occu": 1}], "xyz": [2.080804, 1.914212, -1.999683], "properties": {}}, {"name": "H", "species": [{"element": "H", "occu": 1}], "xyz": [-1.306575, 0.715768, 0.423649], "properties": {}}, {"name": "H", "species": [{"element": "H", "occu": 1}], "xyz": [-1.533172, 1.913469, -0.87527], "properties": {}}, {"name": "H", "species": [{"element": "H", "occu": 1}], "xyz": [-1.238464, 0.202555, -1.274717], "properties": {}}, {"name": "H", "species": [{"element": "H", "occu": 1}], "xyz": [2.545745, 0.94143, 1.998813], "properties": {}}, {"name": "H", "species": [{"element": "H", "occu": 1}], "xyz": [4.134708, 0.911684, 1.197578], "properties": {}}, {"name": "H", "species": [{"element": "H", "occu": 1}], "xyz": [2.910131, 2.076611, 0.67966], "properties": {}}, {"name": "H", "species": [{"element": "H", "occu": 1}], "xyz": [2.447345, -2.13657, -0.224788], "properties": {}}, {"name": "H", "species": [{"element": "H", "occu": 1}], "xyz": [3.931873, -1.566119, 0.577561], "properties": {}}, {"name": "H", "species": [{"element": "H", "occu": 1}], "xyz": [2.390318, -1.608483, 1.469421], "properties": {}}]}, "smiles": "O(C(C)C)C(C)C", "inchi": "InChI=1S/C6H14O/c1-5(2)7-6(3)4/h5-6H,1-4H3", "formula_alphabetical": "C6 H14 O1", "chemsys": "C-H-O", "energy": -312.306817575, "esp": {"1": ["O", -0.59436], "2": ["C", 0.62031], "3": ["C", 0.630535], "4": ["C", -0.482284], "5": ["C", -0.498391], "6": ["C", -0.492167], "7": ["C", -0.454123], "8": ["H", -0.044459], "9": ["H", -0.051568], "10": ["H", 0.126825], "11": ["H", 0.105442], "12": ["H", 0.101883], "13": ["H", 0.12276], "14": ["H", 0.109023], "15": ["H", 0.134101], "16": ["H", 0.127304], "17": ["H", 0.10727], "18": ["H", 0.103716], "19": ["H", 0.110614], "20": ["H", 0.095558], "21": ["H", 0.122011]}, "dipole_moment": {"X": 0.7424, "Y": 1.0436, "Z": -0.2934, "Tot": 1.314}, "functional": "B3LYP", "basis": "6-31+G*", "phase": "gas", "tag": "lis", "state": "successful", "wall_time (s)": 8.279277276989887, "version": "0.0.1", "gauss_version": "ES64L-G16RevC.01", "last_updated": "2021-12-19T18:40:17.196551", "polarizability": 77.34, "solvent": "DIPE", "_id": null, "run_locs": ["/gpfs/scratch/ratwi/invited/ESP/DIPE/run.json", "/gpfs/scratch/ratwi/invited/ESP/DIPE/ESP/run.json"]}