{"molecule": {"@module": "pymatgen.core.structure", "@class": "Molecule", "charge": 0, "spin_multiplicity": 1, "sites": [{"name": "O", "species": [{"element": "O", "occu": 1}], "xyz": [1.015978, -0.192388, -0.30089], "properties": {}}, {"name": "N", "species": [{"element": "N", "occu": 1}], "xyz": [2.95338, 0.88535, -0.836659], "properties": {}}, {"name": "C", "species": [{"element": "C", "occu": 1}], "xyz": [2.227496, -0.049539, -0.134992], "properties": {}}, {"name": "C", "species": [{"element": "C", "occu": 1}], "xyz": [4.355212, 1.196085, -0.601173], "properties": {}}, {"name": "C", "species": [{"element": "C", "occu": 1}], "xyz": [2.262997, 1.796283, -1.742032], "properties": {}}, {"name": "C", "species": [{"element": "C", "occu": 1}], "xyz": [2.978749, -0.928982, 0.858251], "properties": {}}, {"name": "H", "species": [{"element": "H", "occu": 1}], "xyz": [4.871896, 1.312716, -1.562062], "properties": {}}, {"name": "H", "species": [{"element": "H", "occu": 1}], "xyz": [4.464701, 2.136652, -0.040026], "properties": {}}, {"name": "H", "species": [{"element": "H", "occu": 1}], "xyz": [4.854421, 0.402203, -0.047041], "properties": {}}, {"name": "H", "species": [{"element": "H", "occu": 1}], "xyz": [1.237388, 1.454886, -1.878503], "properties": {}}, {"name": "H", "species": [{"element": "H", "occu": 1}], "xyz": [2.251243, 2.816132, -1.331006], "properties": {}}, {"name": "H", "species": [{"element": "H", "occu": 1}], "xyz": [2.776183, 1.818098, -2.71158], "properties": {}}, {"name": "H", "species": [{"element": "H", "occu": 1}], "xyz": [3.443684, -0.337828, 1.656118], "properties": {}}, {"name": "H", "species": [{"element": "H", "occu": 1}], "xyz": [2.252379, -1.611316, 1.30171], "properties": {}}, {"name": "H", "species": [{"element": "H", "occu": 1}], "xyz": [3.765352, -1.517032, 0.370756], "properties": {}}]}, "smiles": "O=C(N(C)C)C", "inchi": "InChI=1S/C4H9NO/c1-4(6)5(2)3/h1-3H3", "formula_alphabetical": "C4 H9 N1 O1", "chemsys": "C-H-N-O", "energy": -287.842896596, "esp": {"1": ["O", -0.590901], "2": ["N", -0.058504], "3": ["C", 0.599923], "4": ["C", -0.32736], "5": ["C", -0.281727], "6": ["C", -0.392627], "7": ["H", 0.127956], "8": ["H", 0.120044], "9": ["H", 0.118706], "10": ["H", 0.136297], "11": ["H", 0.109665], "12": ["H", 0.101924], "13": ["H", 0.110834], "14": ["H", 0.123165], "15": ["H", 0.102605]}, "dipole_moment": {"X": 3.8929, "Y": 1.292, "Z": -0.0461, "Tot": 4.1019}, "functional": "B3LYP", "basis": "6-31+G*", "phase": "gas", "tag": "lis", "state": "successful", "wall_time (s)": 5.468650978000369, "version": "0.0.1", "gauss_version": "ES64L-G16RevC.01", "last_updated": "2021-12-19T18:41:33.224570", "polarizability": 59.49, "solvent": "DMA", "_id": null, "run_locs": ["/gpfs/scratch/ratwi/invited/ESP/DMA/run.json", "/gpfs/scratch/ratwi/invited/ESP/DMA/ESP/run.json"]}