{"molecule": {"@module": "pymatgen.core.structure", "@class": "Molecule", "charge": 0, "spin_multiplicity": 1, "sites": [{"name": "S", "species": [{"element": "S", "occu": 1}], "xyz": [1.086133, 0.122715, 0.130282], "properties": {}}, {"name": "S", "species": [{"element": "S", "occu": 1}], "xyz": [0.710018, 0.965171, -1.737361], "properties": {}}, {"name": "C", "species": [{"element": "C", "occu": 1}], "xyz": [2.88846, -0.231212, 0.059947], "properties": {}}, {"name": "C", "species": [{"element": "C", "occu": 1}], "xyz": [1.133026, 2.734832, -1.476625], "properties": {}}, {"name": "H", "species": [{"element": "H", "occu": 1}], "xyz": [3.142772, -0.728383, 1.002617], "properties": {}}, {"name": "H", "species": [{"element": "H", "occu": 1}], "xyz": [3.117893, -0.897443, -0.775602], "properties": {}}, {"name": "H", "species": [{"element": "H", "occu": 1}], "xyz": [3.470608, 0.690691, -0.025119], "properties": {}}, {"name": "H", "species": [{"element": "H", "occu": 1}], "xyz": [0.526759, 3.161562, -0.673515], "properties": {}}, {"name": "H", "species": [{"element": "H", "occu": 1}], "xyz": [2.195755, 2.859412, -1.250527], "properties": {}}, {"name": "H", "species": [{"element": "H", "occu": 1}], "xyz": [0.905476, 3.248774, -2.417139], "properties": {}}]}, "smiles": "S(SC)C", "inchi": "InChI=1S/C2H6S2/c1-3-4-2/h1-2H3", "formula_alphabetical": "C2 H6 S2", "chemsys": "C-H-S", "energy": -876.212163047, "esp": {"1": ["S", -0.11013], "2": ["S", -0.10204], "3": ["C", -0.245168], "4": ["C", -0.30423], "5": ["H", 0.139721], "6": ["H", 0.10301], "7": ["H", 0.113658], "8": ["H", 0.119753], "9": ["H", 0.127994], "10": ["H", 0.157433]}, "dipole_moment": {"X": 1.8946, "Y": 1.2053, "Z": 0.1621, "Tot": 2.2514}, "functional": "B3LYP", "basis": "6-31+G*", "phase": "gas", "tag": "lis", "state": "successful", "wall_time (s)": 3.030644853002741, "version": "0.0.1", "gauss_version": "ES64L-G16RevC.01", "last_updated": "2021-12-19T18:39:42.720672", "polarizability": 64.24, "solvent": "DMDS", "_id": null, "run_locs": ["/gpfs/scratch/ratwi/invited/ESP/DMDS/run.json", "/gpfs/scratch/ratwi/invited/ESP/DMDS/ESP/run.json"]}