{"molecule": {"@module": "pymatgen.core.structure", "@class": "Molecule", "charge": 0, "spin_multiplicity": 1, "sites": [{"name": "O", "species": [{"element": "O", "occu": 1}], "xyz": [0.955087, 0.345458, 0.199394], "properties": {}}, {"name": "O", "species": [{"element": "O", "occu": 1}], "xyz": [0.47513, -1.840056, 3.017277], "properties": {}}, {"name": "C", "species": [{"element": "C", "occu": 1}], "xyz": [0.521227, -0.020196, 1.498605], "properties": {}}, {"name": "C", "species": [{"element": "C", "occu": 1}], "xyz": [0.908992, -1.474402, 1.718066], "properties": {}}, {"name": "C", "species": [{"element": "C", "occu": 1}], "xyz": [0.651011, 1.688598, -0.129322], "properties": {}}, {"name": "C", "species": [{"element": "C", "occu": 1}], "xyz": [0.779226, -3.183189, 3.346002], "properties": {}}, {"name": "H", "species": [{"element": "H", "occu": 1}], "xyz": [0.997578, 0.612786, 2.265088], "properties": {}}, {"name": "H", "species": [{"element": "H", "occu": 1}], "xyz": [-0.570951, 0.093418, 1.595153], "properties": {}}, {"name": "H", "species": [{"element": "H", "occu": 1}], "xyz": [0.432643, -2.107384, 0.951582], "properties": {}}, {"name": "H", "species": [{"element": "H", "occu": 1}], "xyz": [2.001169, -1.588014, 1.62152], "properties": {}}, {"name": "H", "species": [{"element": "H", "occu": 1}], "xyz": [1.025295, 1.863499, -1.141425], "properties": {}}, {"name": "H", "species": [{"element": "H", "occu": 1}], "xyz": [-0.435775, 1.871162, -0.109178], "properties": {}}, {"name": "H", "species": [{"element": "H", "occu": 1}], "xyz": [1.139954, 2.39258, 0.563637], "properties": {}}, {"name": "H", "species": [{"element": "H", "occu": 1}], "xyz": [0.290294, -3.887183, 2.653046], "properties": {}}, {"name": "H", "species": [{"element": "H", "occu": 1}], "xyz": [1.866015, -3.365737, 3.325858], "properties": {}}, {"name": "H", "species": [{"element": "H", "occu": 1}], "xyz": [0.404944, -3.358089, 4.358105], "properties": {}}]}, "smiles": "O(CCOC)C", "inchi": "InChI=1S/C4H10O2/c1-5-3-4-6-2/h3-4H2,1-2H3", "formula_alphabetical": "C4 H10 O2", "chemsys": "C-H-O", "energy": -308.871338579, "esp": {"1": ["O", -0.471609], "2": ["O", -0.452093], "3": ["C", 0.235717], "4": ["C", 0.197931], "5": ["C", 0.088541], "6": ["C", 0.018356], "7": ["H", 0.017707], "8": ["H", 0.017043], "9": ["H", 0.026283], "10": ["H", 0.026413], "11": ["H", 0.066221], "12": ["H", 0.025171], "13": ["H", 0.028343], "14": ["H", 0.048366], "15": ["H", 0.042648], "16": ["H", 0.084962]}, "dipole_moment": {"X": 0.0, "Y": 0.0, "Z": 0.0, "Tot": 0.0}, "functional": "B3LYP", "basis": "6-31+G*", "phase": "gas", "tag": "lis", "state": "successful", "wall_time (s)": 5.09059274700121, "version": "0.0.1", "gauss_version": "ES64L-G16RevC.01", "last_updated": "2021-12-19T18:41:00.441951", "polarizability": 58.24, "solvent": "DME", "_id": null, "run_locs": ["/gpfs/scratch/ratwi/invited/ESP/DME/run.json", "/gpfs/scratch/ratwi/invited/ESP/DME/ESP/run.json"]}