{"molecule": {"@module": "pymatgen.core.structure", "@class": "Molecule", "charge": 0, "spin_multiplicity": 1, "sites": [{"name": "O", "species": [{"element": "O", "occu": 1}], "xyz": [1.00134, 0.246367, -0.150919], "properties": {}}, {"name": "N", "species": [{"element": "N", "occu": 1}], "xyz": [2.910258, 0.532279, 1.10816], "properties": {}}, {"name": "C", "species": [{"element": "C", "occu": 1}], "xyz": [4.350235, 0.371545, 1.202924], "properties": {}}, {"name": "C", "species": [{"element": "C", "occu": 1}], "xyz": [2.228789, 1.128639, 2.247133], "properties": {}}, {"name": "C", "species": [{"element": "C", "occu": 1}], "xyz": [2.211748, 0.144253, 0.002994], "properties": {}}, {"name": "H", "species": [{"element": "H", "occu": 1}], "xyz": [4.841964, 1.343927, 1.340691], "properties": {}}, {"name": "H", "species": [{"element": "H", "occu": 1}], "xyz": [4.614654, -0.273493, 2.051638], "properties": {}}, {"name": "H", "species": [{"element": "H", "occu": 1}], "xyz": [4.735373, -0.085411, 0.286492], "properties": {}}, {"name": "H", "species": [{"element": "H", "occu": 1}], "xyz": [1.161445, 1.182777, 2.027676], "properties": {}}, {"name": "H", "species": [{"element": "H", "occu": 1}], "xyz": [2.386075, 0.519949, 3.147287], "properties": {}}, {"name": "H", "species": [{"element": "H", "occu": 1}], "xyz": [2.614478, 2.139107, 2.436067], "properties": {}}, {"name": "H", "species": [{"element": "H", "occu": 1}], "xyz": [2.866352, -0.29034, -0.776553], "properties": {}}]}, "smiles": "O=CN(C)C", "inchi": "InChI=1S/C3H7NO/c1-4(2)3-5/h3H,1-2H3", "formula_alphabetical": "C3 H7 N1 O1", "chemsys": "C-H-N-O", "energy": -248.524210863, "esp": {"1": ["O", -0.526263], "2": ["N", 0.045452], "3": ["C", -0.396632], "4": ["C", -0.205179], "5": ["C", 0.332294], "6": ["H", 0.138904], "7": ["H", 0.140072], "8": ["H", 0.129045], "9": ["H", 0.122837], "10": ["H", 0.08689], "11": ["H", 0.085808], "12": ["H", 0.046772]}, "dipole_moment": {"X": 3.8406, "Y": 0.3027, "Z": 1.9145, "Tot": 4.302}, "functional": "B3LYP", "basis": "6-31+G*", "phase": "gas", "tag": "lis", "state": "successful", "wall_time (s)": 3.8618373020144645, "version": "0.0.1", "gauss_version": "ES64L-G16RevC.01", "last_updated": "2021-12-19T18:45:06.932446", "polarizability": 48.24, "solvent": "DMF", "_id": null, "run_locs": ["/gpfs/scratch/ratwi/invited/ESP/DMF/run.json", "/gpfs/scratch/ratwi/invited/ESP/DMF/ESP/run.json"]}