{"molecule": {"@module": "pymatgen.core.structure", "@class": "Molecule", "charge": 0, "spin_multiplicity": 1, "sites": [{"name": "O", "species": [{"element": "O", "occu": 1}], "xyz": [-0.008207, 1.830363, 0.095219], "properties": {}}, {"name": "N", "species": [{"element": "N", "occu": 1}], "xyz": [1.103729, -0.209468, -0.128323], "properties": {}}, {"name": "N", "species": [{"element": "N", "occu": 1}], "xyz": [-1.111884, -0.222059, 0.224843], "properties": {}}, {"name": "C", "species": [{"element": "C", "occu": 1}], "xyz": [0.757277, -1.59766, 0.142104], "properties": {}}, {"name": "C", "species": [{"element": "C", "occu": 1}], "xyz": [-0.759886, -1.5949, -0.109282], "properties": {}}, {"name": "C", "species": [{"element": "C", "occu": 1}], "xyz": [-0.005728, 0.604994, 0.067092], "properties": {}}, {"name": "C", "species": [{"element": "C", "occu": 1}], "xyz": [2.436297, 0.286833, 0.146554], "properties": {}}, {"name": "C", "species": [{"element": "C", "occu": 1}], "xyz": [-2.446432, 0.280939, -0.02739], "properties": {}}, {"name": "H", "species": [{"element": "H", "occu": 1}], "xyz": [1.29825, -2.283051, -0.51844], "properties": {}}, {"name": "H", "species": [{"element": "H", "occu": 1}], "xyz": [0.987086, -1.863471, 1.18826], "properties": {}}, {"name": "H", "species": [{"element": "H", "occu": 1}], "xyz": [-0.98876, -1.813071, -1.166603], "properties": {}}, {"name": "H", "species": [{"element": "H", "occu": 1}], "xyz": [-1.298032, -2.312192, 0.518907], "properties": {}}, {"name": "H", "species": [{"element": "H", "occu": 1}], "xyz": [2.452859, 1.359614, -0.056812], "properties": {}}, {"name": "H", "species": [{"element": "H", "occu": 1}], "xyz": [2.722788, 0.11958, 1.197766], "properties": {}}, {"name": "H", "species": [{"element": "H", "occu": 1}], "xyz": [3.162646, -0.216336, -0.500953], "properties": {}}, {"name": "H", "species": [{"element": "H", "occu": 1}], "xyz": [-2.467404, 1.343184, 0.224963], "properties": {}}, {"name": "H", "species": [{"element": "H", "occu": 1}], "xyz": [-2.73209, 0.160902, -1.085263], "properties": {}}, {"name": "H", "species": [{"element": "H", "occu": 1}], "xyz": [-3.170808, -0.254361, 0.596118], "properties": {}}]}, "smiles": "O=C1N(CCN1C)C", "inchi": "InChI=1S/C5H10N2O/c1-6-3-4-7(2)5(6)8/h3-4H2,1-2H3", "formula_alphabetical": "C5 H10 N2 O1", "chemsys": "C-H-N-O", "energy": -381.315531342, "esp": {"1": ["O", -0.586803], "2": ["N", -0.218127], "3": ["N", -0.240469], "4": ["C", -0.138117], "5": ["C", -0.05685], "6": ["C", 0.65832], "7": ["C", -0.208217], "8": ["C", -0.18478], "9": ["H", 0.114746], "10": ["H", 0.090585], "11": ["H", 0.072712], "12": ["H", 0.096845], "13": ["H", 0.115251], "14": ["H", 0.096342], "15": ["H", 0.097829], "16": ["H", 0.110841], "17": ["H", 0.088509], "18": ["H", 0.091385]}, "dipole_moment": {"X": 0.0087, "Y": -4.1875, "Z": -0.0967, "Tot": 4.1887}, "functional": "B3LYP", "basis": "6-31+G*", "phase": "gas", "tag": "lis", "state": "successful", "wall_time (s)": 6.835739627014846, "version": "0.0.1", "gauss_version": "ES64L-G16RevC.01", "last_updated": "2021-12-19T18:43:18.083686", "polarizability": 76.56, "solvent": "DMI", "_id": null, "run_locs": ["/gpfs/scratch/ratwi/invited/ESP/DMI/run.json", "/gpfs/scratch/ratwi/invited/ESP/DMI/ESP/run.json"]}