{"molecule": {"@module": "pymatgen.core.structure", "@class": "Molecule", "charge": 0, "spin_multiplicity": 1, "sites": [{"name": "S", "species": [{"element": "S", "occu": 1}], "xyz": [0.843913, 0.422022, -0.163168], "properties": {}}, {"name": "O", "species": [{"element": "O", "occu": 1}], "xyz": [0.329242, -1.002119, -0.874095], "properties": {}}, {"name": "O", "species": [{"element": "O", "occu": 1}], "xyz": [0.287849, -0.143477, 1.309786], "properties": {}}, {"name": "O", "species": [{"element": "O", "occu": 1}], "xyz": [2.321693, 0.442103, -0.143081], "properties": {}}, {"name": "C", "species": [{"element": "C", "occu": 1}], "xyz": [0.784466, -1.166455, -2.23344], "properties": {}}, {"name": "C", "species": [{"element": "C", "occu": 1}], "xyz": [0.695967, 0.6677, 2.431149], "properties": {}}, {"name": "H", "species": [{"element": "H", "occu": 1}], "xyz": [0.405678, -0.365798, -2.882149], "properties": {}}, {"name": "H", "species": [{"element": "H", "occu": 1}], "xyz": [1.877702, -1.202779, -2.27568], "properties": {}}, {"name": "H", "species": [{"element": "H", "occu": 1}], "xyz": [0.367833, -2.122298, -2.554949], "properties": {}}, {"name": "H", "species": [{"element": "H", "occu": 1}], "xyz": [1.786655, 0.683895, 2.522786], "properties": {}}, {"name": "H", "species": [{"element": "H", "occu": 1}], "xyz": [0.306554, 1.690832, 2.348022], "properties": {}}, {"name": "H", "species": [{"element": "H", "occu": 1}], "xyz": [0.256559, 0.181424, 3.303529], "properties": {}}]}, "smiles": "S(=O)(OC)OC", "inchi": "InChI=1S/C2H6O3S/c1-4-6(3)5-2/h1-2H3", "formula_alphabetical": "C2 H6 O3 S1", "chemsys": "C-H-O-S", "energy": -703.625845256, "esp": {"1": ["S", 0.435885], "2": ["O", -0.293222], "3": ["O", -0.281751], "4": ["O", -0.382125], "5": ["C", 0.081549], "6": ["C", 0.037356], "7": ["H", 0.041866], "8": ["H", 0.075375], "9": ["H", 0.066435], "10": ["H", 0.088387], "11": ["H", 0.052675], "12": ["H", 0.07757]}, "dipole_moment": {"X": -1.1357, "Y": 0.8604, "Z": -0.36, "Tot": 1.4696}, "functional": "B3LYP", "basis": "6-31+G*", "phase": "gas", "tag": "lis", "state": "successful", "wall_time (s)": 5.058637203997932, "version": "0.0.1", "gauss_version": "ES64L-G16RevC.01", "last_updated": "2021-12-19T18:40:38.860886", "polarizability": 57.86, "solvent": "DMS", "_id": null, "run_locs": ["/gpfs/scratch/ratwi/invited/ESP/DMS/run.json", "/gpfs/scratch/ratwi/invited/ESP/DMS/ESP/run.json"]}