{"molecule": {"@module": "pymatgen.core.structure", "@class": "Molecule", "charge": 0, "spin_multiplicity": 1, "sites": [{"name": "S", "species": [{"element": "S", "occu": 1}], "xyz": [0.850562, -0.023287, -0.216844], "properties": {}}, {"name": "O", "species": [{"element": "O", "occu": 1}], "xyz": [0.4288, -1.479145, -0.314987], "properties": {}}, {"name": "C", "species": [{"element": "C", "occu": 1}], "xyz": [0.444066, 0.533921, 1.487777], "properties": {}}, {"name": "C", "species": [{"element": "C", "occu": 1}], "xyz": [2.675586, -0.012797, 0.008131], "properties": {}}, {"name": "H", "species": [{"element": "H", "occu": 1}], "xyz": [0.862815, -0.17946, 2.204813], "properties": {}}, {"name": "H", "species": [{"element": "H", "occu": 1}], "xyz": [0.840093, 1.541052, 1.655651], "properties": {}}, {"name": "H", "species": [{"element": "H", "occu": 1}], "xyz": [-0.645785, 0.54251, 1.570399], "properties": {}}, {"name": "H", "species": [{"element": "H", "occu": 1}], "xyz": [3.115023, -0.379119, -0.923203], "properties": {}}, {"name": "H", "species": [{"element": "H", "occu": 1}], "xyz": [3.021016, 1.006777, 0.209334], "properties": {}}, {"name": "H", "species": [{"element": "H", "occu": 1}], "xyz": [2.936845, -0.687401, 0.829749], "properties": {}}]}, "smiles": "S(=O)(C)C", "inchi": "InChI=1S/C2H6OS/c1-4(2)3/h1-2H3", "formula_alphabetical": "C2 H6 O1 S1", "chemsys": "C-H-O-S", "energy": -553.200109546, "esp": {"1": ["S", 0.337266], "2": ["O", -0.474987], "3": ["C", -0.461228], "4": ["C", -0.504771], "5": ["H", 0.188505], "6": ["H", 0.157733], "7": ["H", 0.18815], "8": ["H", 0.204788], "9": ["H", 0.168883], "10": ["H", 0.195661]}, "dipole_moment": {"X": 2.026, "Y": 3.4935, "Z": 1.7647, "Tot": 4.4072}, "functional": "B3LYP", "basis": "6-31+G*", "phase": "gas", "tag": "lis", "state": "successful", "wall_time (s)": 3.214240481000161, "version": "0.0.1", "gauss_version": "ES64L-G16RevC.01", "last_updated": "2021-12-19T18:39:53.618487", "polarizability": 50.25, "solvent": "DMSO", "_id": null, "run_locs": ["/gpfs/scratch/ratwi/invited/ESP/DMSO/run.json", "/gpfs/scratch/ratwi/invited/ESP/DMSO/ESP/run.json"]}