{"molecule": {"@module": "pymatgen.core.structure", "@class": "Molecule", "charge": 0, "spin_multiplicity": 1, "sites": [{"name": "S", "species": [{"element": "S", "occu": 1}], "xyz": [1.050521, -0.433455, 0.212365], "properties": {}}, {"name": "F", "species": [{"element": "F", "occu": 1}], "xyz": [3.266972, -0.714383, -1.246708], "properties": {}}, {"name": "F", "species": [{"element": "F", "occu": 1}], "xyz": [2.90942, 1.321145, -0.552946], "properties": {}}, {"name": "F", "species": [{"element": "F", "occu": 1}], "xyz": [3.636086, -0.193546, 0.840467], "properties": {}}, {"name": "O", "species": [{"element": "O", "occu": 1}], "xyz": [1.081659, -1.876306, 0.42529], "properties": {}}, {"name": "O", "species": [{"element": "O", "occu": 1}], "xyz": [0.661041, 0.522186, 1.243476], "properties": {}}, {"name": "N", "species": [{"element": "N", "occu": 1}], "xyz": [0.175885, -0.120662, -1.154089], "properties": {}}, {"name": "C", "species": [{"element": "C", "occu": 1}], "xyz": [2.838582, 0.023348, -0.20689], "properties": {}}, {"name": "C", "species": [{"element": "C", "occu": 1}], "xyz": [0.212868, -1.069339, -2.274911], "properties": {}}, {"name": "C", "species": [{"element": "C", "occu": 1}], "xyz": [-0.194513, 1.26289, -1.480001], "properties": {}}, {"name": "H", "species": [{"element": "H", "occu": 1}], "xyz": [-0.232586, 1.859088, -0.56845], "properties": {}}, {"name": "H", "species": [{"element": "H", "occu": 1}], "xyz": [-1.191978, 1.247331, -1.931306], "properties": {}}, {"name": "H", "species": [{"element": "H", "occu": 1}], "xyz": [0.514062, 1.712529, -2.18828], "properties": {}}, {"name": "H", "species": [{"element": "H", "occu": 1}], "xyz": [0.452497, -2.066652, -1.906427], "properties": {}}, {"name": "H", "species": [{"element": "H", "occu": 1}], "xyz": [0.947488, -0.767287, -3.033202], "properties": {}}, {"name": "H", "species": [{"element": "H", "occu": 1}], "xyz": [-0.783004, -1.092885, -2.729387], "properties": {}}]}, "smiles": "S(=O)(=O)(N(C)C)C(F)(F)F", "inchi": "InChI=1S/C3H6F3NO2S/c1-7(2)10(8,9)3(4,5)6/h1-2H3", "formula_alphabetical": "C3 F3 H6 N1 O2 S1", "chemsys": "C-F-H-N-O-S", "energy": -1020.78896339, "esp": {"1": ["S", 0.698151], "2": ["F", -0.153112], "3": ["F", -0.151224], "4": ["F", -0.126987], "5": ["O", -0.416332], "6": ["O", -0.417503], "7": ["N", -0.064567], "8": ["C", 0.419882], "9": ["C", -0.321291], "10": ["C", -0.298032], "11": ["H", 0.145564], "12": ["H", 0.138768], "13": ["H", 0.121778], "14": ["H", 0.151535], "15": ["H", 0.129085], "16": ["H", 0.144284]}, "dipole_moment": {"X": -1.3266, "Y": 1.2552, "Z": -4.3632, "Tot": 4.73}, "functional": "B3LYP", "basis": "6-31+G*", "phase": "gas", "tag": "lis", "state": "successful", "wall_time (s)": 285.57246095780283, "version": "0.0.1", "gauss_version": "ES64L-G16RevC.01", "last_updated": "2022-10-06T21:10:51.642765", "polarizability": 73.25, "solvent": "mt", "_id": null, "run_locs": ["/gpfs/scratch/ratwi/invited/dmt/mt/Optimization/run.json", "/gpfs/scratch/ratwi/invited/dmt/mt/Frequency/run.json", "/gpfs/scratch/ratwi/invited/dmt/mt/ESP/run.json"]}