{"molecule": {"@module": "pymatgen.core.structure", "@class": "Molecule", "charge": 0, "spin_multiplicity": 1, "sites": [{"name": "O", "species": [{"element": "O", "occu": 1}], "xyz": [-1.149939, 0.345954, 0.103306], "properties": {}}, {"name": "O", "species": [{"element": "O", "occu": 1}], "xyz": [1.135989, 0.303276, 0.186], "properties": {}}, {"name": "C", "species": [{"element": "C", "occu": 1}], "xyz": [-0.746345, -1.029253, 0.174957], "properties": {}}, {"name": "C", "species": [{"element": "C", "occu": 1}], "xyz": [0.724315, -0.991593, -0.255901], "properties": {}}, {"name": "C", "species": [{"element": "C", "occu": 1}], "xyz": [0.025586, 1.135819, -0.070649], "properties": {}}, {"name": "H", "species": [{"element": "H", "occu": 1}], "xyz": [-0.857726, -1.388019, 1.206308], "properties": {}}, {"name": "H", "species": [{"element": "H", "occu": 1}], "xyz": [-1.379818, -1.62498, -0.490544], "properties": {}}, {"name": "H", "species": [{"element": "H", "occu": 1}], "xyz": [1.356509, -1.736728, 0.231909], "properties": {}}, {"name": "H", "species": [{"element": "H", "occu": 1}], "xyz": [0.828197, -1.075607, -1.349152], "properties": {}}, {"name": "H", "species": [{"element": "H", "occu": 1}], "xyz": [0.051029, 1.515671, -1.106025], "properties": {}}, {"name": "H", "species": [{"element": "H", "occu": 1}], "xyz": [0.036055, 1.961079, 0.647482], "properties": {}}]}, "smiles": "O1CCOC1", "inchi": "InChI=1S/C3H6O2/c1-2-5-3-4-1/h1-3H2", "formula_alphabetical": "C3 H6 O2", "chemsys": "C-H-O", "energy": -268.357549293, "esp": {"1": ["O", -0.475966], "2": ["O", -0.430887], "3": ["C", 0.221993], "4": ["C", 0.081672], "5": ["C", 0.397248], "6": ["H", 0.03349], "7": ["H", 0.007339], "8": ["H", 0.058446], "9": ["H", 0.055306], "10": ["H", 0.006319], "11": ["H", 0.045041]}, "dipole_moment": {"X": 0.2222, "Y": -1.3404, "Z": -0.6664, "Tot": 1.5133}, "functional": "B3LYP", "basis": "6-31+G*", "phase": "gas", "tag": "lis", "state": "successful", "wall_time (s)": 3.541773770994041, "version": "0.0.1", "gauss_version": "ES64L-G16RevC.01", "last_updated": "2021-12-19T18:39:13.870982", "polarizability": 41.38, "solvent": "DOL", "_id": null, "run_locs": ["/gpfs/scratch/ratwi/invited/ESP/DOL/run.json", "/gpfs/scratch/ratwi/invited/ESP/DOL/ESP/run.json"]}