{"molecule": {"@module": "pymatgen.core.structure", "@class": "Molecule", "charge": 0, "spin_multiplicity": 1, "sites": [{"name": "S", "species": [{"element": "S", "occu": 1}], "xyz": [0.849007, 0.031068, 0.102174], "properties": {}}, {"name": "O", "species": [{"element": "O", "occu": 1}], "xyz": [0.203936, -0.61365, 1.265689], "properties": {}}, {"name": "O", "species": [{"element": "O", "occu": 1}], "xyz": [0.531622, 1.436007, -0.23056], "properties": {}}, {"name": "C", "species": [{"element": "C", "occu": 1}], "xyz": [0.526035, -1.016108, -1.363003], "properties": {}}, {"name": "C", "species": [{"element": "C", "occu": 1}], "xyz": [2.656646, -0.093563, 0.316437], "properties": {}}, {"name": "C", "species": [{"element": "C", "occu": 1}], "xyz": [-0.966539, -1.328564, -1.530414], "properties": {}}, {"name": "C", "species": [{"element": "C", "occu": 1}], "xyz": [3.126464, 0.786272, 1.478363], "properties": {}}, {"name": "C", "species": [{"element": "C", "occu": 1}], "xyz": [-1.827564, -0.11969, -1.917027], "properties": {}}, {"name": "C", "species": [{"element": "C", "occu": 1}], "xyz": [4.64586, 0.691178, 1.665555], "properties": {}}, {"name": "H", "species": [{"element": "H", "occu": 1}], "xyz": [0.936641, -0.474488, -2.221969], "properties": {}}, {"name": "H", "species": [{"element": "H", "occu": 1}], "xyz": [1.103785, -1.932932, -1.20113], "properties": {}}, {"name": "H", "species": [{"element": "H", "occu": 1}], "xyz": [2.877393, -1.151835, 0.493547], "properties": {}}, {"name": "H", "species": [{"element": "H", "occu": 1}], "xyz": [3.10504, 0.217751, -0.63404], "properties": {}}, {"name": "H", "species": [{"element": "H", "occu": 1}], "xyz": [-1.040099, -2.101221, -2.307526], "properties": {}}, {"name": "H", "species": [{"element": "H", "occu": 1}], "xyz": [-1.335339, -1.77903, -0.60142], "properties": {}}, {"name": "H", "species": [{"element": "H", "occu": 1}], "xyz": [2.831962, 1.82325, 1.281788], "properties": {}}, {"name": "H", "species": [{"element": "H", "occu": 1}], "xyz": [2.612026, 0.472728, 2.393998], "properties": {}}, {"name": "H", "species": [{"element": "H", "occu": 1}], "xyz": [-1.463737, 0.343398, -2.842817], "properties": {}}, {"name": "H", "species": [{"element": "H", "occu": 1}], "xyz": [-2.865784, -0.430967, -2.078945], "properties": {}}, {"name": "H", "species": [{"element": "H", "occu": 1}], "xyz": [-1.816202, 0.647952, -1.138057], "properties": {}}, {"name": "H", "species": [{"element": "H", "occu": 1}], "xyz": [5.17999, 1.021239, 0.76565], "properties": {}}, {"name": "H", "species": [{"element": "H", "occu": 1}], "xyz": [4.972173, 1.323796, 2.498732], "properties": {}}, {"name": "H", "species": [{"element": "H", "occu": 1}], "xyz": [4.957693, -0.33779, 1.884504], "properties": {}}]}, "smiles": "S(=O)(=O)(CCC)CCC", "inchi": "InChI=1S/C6H14O2S/c1-3-5-9(7,8)6-4-2/h3-6H2,1-2H3", "formula_alphabetical": "C6 H14 O2 S1", "chemsys": "C-H-O-S", "energy": -785.675030997, "esp": {"1": ["S", 0.846583], "2": ["O", -0.51082], "3": ["O", -0.519915], "4": ["C", -0.280942], "5": ["C", -0.403383], "6": ["C", 0.271136], "7": ["C", 0.347521], "8": ["C", -0.312784], "9": ["C", -0.331262], "10": ["H", 0.116563], "11": ["H", 0.089162], "12": ["H", 0.142585], "13": ["H", 0.133634], "14": ["H", -0.022333], "15": ["H", -0.011109], "16": ["H", -0.01697], "17": ["H", -0.020348], "18": ["H", 0.073093], "19": ["H", 0.066205], "20": ["H", 0.109201], "21": ["H", 0.07984], "22": ["H", 0.076744], "23": ["H", 0.077601]}, "dipole_moment": {"X": 3.0286, "Y": -2.2897, "Z": -2.4133, "Tot": 4.4988}, "functional": "B3LYP", "basis": "6-31+G*", "phase": "gas", "tag": "lis", "state": "successful", "wall_time (s)": 9.98454676498659, "version": "0.0.1", "gauss_version": "ES64L-G16RevC.01", "last_updated": "2021-12-19T18:40:07.628660", "polarizability": 98.22, "solvent": "DPS", "_id": null, "run_locs": ["/gpfs/scratch/ratwi/invited/ESP/DPS/run.json", "/gpfs/scratch/ratwi/invited/ESP/DPS/ESP/run.json"]}