{"molecule": {"@module": "pymatgen.core.structure", "@class": "Molecule", "charge": 0, "spin_multiplicity": 1, "sites": [{"name": "S", "species": [{"element": "S", "occu": 1}], "xyz": [1.56057, 0.331589, 0.309697], "properties": {}}, {"name": "F", "species": [{"element": "F", "occu": 1}], "xyz": [3.169023, -0.915381, -1.423534], "properties": {}}, {"name": "F", "species": [{"element": "F", "occu": 1}], "xyz": [2.016211, 0.705306, -2.315231], "properties": {}}, {"name": "F", "species": [{"element": "F", "occu": 1}], "xyz": [3.70975, 1.163354, -1.023595], "properties": {}}, {"name": "O", "species": [{"element": "O", "occu": 1}], "xyz": [2.474837, -0.037575, 1.38867], "properties": {}}, {"name": "O", "species": [{"element": "O", "occu": 1}], "xyz": [0.859871, 1.612312, 0.252535], "properties": {}}, {"name": "N", "species": [{"element": "N", "occu": 1}], "xyz": [0.487774, -0.882744, 0.059953], "properties": {}}, {"name": "C", "species": [{"element": "C", "occu": 1}], "xyz": [0.867179, -2.268536, 0.435636], "properties": {}}, {"name": "C", "species": [{"element": "C", "occu": 1}], "xyz": [-0.867459, -0.587947, -0.469698], "properties": {}}, {"name": "C", "species": [{"element": "C", "occu": 1}], "xyz": [0.645334, -2.603336, 1.915167], "properties": {}}, {"name": "C", "species": [{"element": "C", "occu": 1}], "xyz": [-0.939792, -0.437914, -1.991836], "properties": {}}, {"name": "C", "species": [{"element": "C", "occu": 1}], "xyz": [2.686429, 0.325925, -1.216199], "properties": {}}, {"name": "C", "species": [{"element": "C", "occu": 1}], "xyz": [-0.795734, -2.412145, 2.398215], "properties": {}}, {"name": "C", "species": [{"element": "C", "occu": 1}], "xyz": [-0.411171, -1.653247, -2.759823], "properties": {}}, {"name": "H", "species": [{"element": "H", "occu": 1}], "xyz": [0.271089, -2.923252, -0.208156], "properties": {}}, {"name": "H", "species": [{"element": "H", "occu": 1}], "xyz": [1.914945, -2.430546, 0.16907], "properties": {}}, {"name": "H", "species": [{"element": "H", "occu": 1}], "xyz": [-1.491292, -1.423466, -0.139928], "properties": {}}, {"name": "H", "species": [{"element": "H", "occu": 1}], "xyz": [-1.244609, 0.31252, 0.02158], "properties": {}}, {"name": "H", "species": [{"element": "H", "occu": 1}], "xyz": [0.950415, -3.650118, 2.056105], "properties": {}}, {"name": "H", "species": [{"element": "H", "occu": 1}], "xyz": [1.325816, -1.989885, 2.514778], "properties": {}}, {"name": "H", "species": [{"element": "H", "occu": 1}], "xyz": [-1.993606, -0.260674, -2.248378], "properties": {}}, {"name": "H", "species": [{"element": "H", "occu": 1}], "xyz": [-0.393554, 0.463287, -2.289282], "properties": {}}, {"name": "H", "species": [{"element": "H", "occu": 1}], "xyz": [-1.501413, -3.022435, 1.818652], "properties": {}}, {"name": "H", "species": [{"element": "H", "occu": 1}], "xyz": [-0.892585, -2.702348, 3.450314], "properties": {}}, {"name": "H", "species": [{"element": "H", "occu": 1}], "xyz": [-1.105084, -1.363783, 2.316884], "properties": {}}, {"name": "H", "species": [{"element": "H", "occu": 1}], "xyz": [-0.974147, -2.561456, -2.506962], "properties": {}}, {"name": "H", "species": [{"element": "H", "occu": 1}], "xyz": [-0.494983, -1.499043, -3.841208], "properties": {}}, {"name": "H", "species": [{"element": "H", "occu": 1}], "xyz": [0.645267, -1.836808, -2.534196], "properties": {}}]}, "smiles": "S(=O)(=O)(N(CCC)CCC)C(F)(F)F", "inchi": "InChI=1S/C7H14F3NO2S/c1-3-5-11(6-4-2)14(12,13)7(8,9)10/h3-6H2,1-2H3", "formula_alphabetical": "C7 F3 H14 N1 O2 S1", "chemsys": "C-F-H-N-O-S", "energy": -1178.04613962, "esp": {"1": ["S", 0.729501], "2": ["F", -0.134855], "3": ["F", -0.110903], "4": ["F", -0.119644], "5": ["O", -0.445972], "6": ["O", -0.448677], "7": ["N", 0.099936], "8": ["C", -0.071664], "9": ["C", -0.204178], "10": ["C", 0.108475], "11": ["C", 0.170759], "12": ["C", 0.324393], "13": ["C", -0.239563], "14": ["C", -0.240767], "15": ["H", 0.069176], "16": ["H", 0.028324], "17": ["H", 0.096484], "18": ["H", 0.085816], "19": ["H", 0.002552], "20": ["H", 0.014241], "21": ["H", -0.00079], "22": ["H", -0.022968], "23": ["H", 0.050157], "24": ["H", 0.072875], "25": ["H", 0.039704], "26": ["H", 0.054729], "27": ["H", 0.072811], "28": ["H", 0.020046]}, "dipole_moment": {"X": -2.9405, "Y": -3.648, "Z": -1.2546, "Tot": 4.8506}, "functional": "B3LYP", "basis": "6-31+G*", "phase": "gas", "tag": "lis", "state": "successful", "wall_time (s)": 20.766438190010376, "version": "0.0.1", "gauss_version": "ES64L-G16RevC.01", "last_updated": "2021-12-19T18:40:27.970734", "polarizability": 117.66, "solvent": "DPT", "_id": null, "run_locs": ["/gpfs/scratch/ratwi/invited/ESP/DPT/run.json", "/gpfs/scratch/ratwi/invited/ESP/DPT/ESP/run.json"]}