{"molecule": {"@module": "pymatgen.core.structure", "@class": "Molecule", "charge": 0, "spin_multiplicity": 1, "sites": [{"name": "F", "species": [{"element": "F", "occu": 1}], "xyz": [0.503706, -2.510414, 4.079569], "properties": {}}, {"name": "F", "species": [{"element": "F", "occu": 1}], "xyz": [2.456928, -2.310194, 5.028542], "properties": {}}, {"name": "F", "species": [{"element": "F", "occu": 1}], "xyz": [1.911592, -4.183753, 4.04288], "properties": {}}, {"name": "F", "species": [{"element": "F", "occu": 1}], "xyz": [6.716135, 1.528052, 1.193161], "properties": {}}, {"name": "F", "species": [{"element": "F", "occu": 1}], "xyz": [5.248065, 2.202173, -0.281256], "properties": {}}, {"name": "F", "species": [{"element": "F", "occu": 1}], "xyz": [4.820511, 2.378876, 1.855342], "properties": {}}, {"name": "O", "species": [{"element": "O", "occu": 1}], "xyz": [2.178741, -0.996327, 2.360003], "properties": {}}, {"name": "O", "species": [{"element": "O", "occu": 1}], "xyz": [5.014965, -0.59949, 1.990368], "properties": {}}, {"name": "C", "species": [{"element": "C", "occu": 1}], "xyz": [2.880126, -0.024891, 3.144989], "properties": {}}, {"name": "C", "species": [{"element": "C", "occu": 1}], "xyz": [4.391457, -0.242328, 3.229498], "properties": {}}, {"name": "C", "species": [{"element": "C", "occu": 1}], "xyz": [2.402809, -2.35846, 2.629509], "properties": {}}, {"name": "C", "species": [{"element": "C", "occu": 1}], "xyz": [4.754883, 0.195835, 0.859826], "properties": {}}, {"name": "C", "species": [{"element": "C", "occu": 1}], "xyz": [1.806464, -2.834558, 3.952512], "properties": {}}, {"name": "C", "species": [{"element": "C", "occu": 1}], "xyz": [5.397743, 1.580173, 0.914658], "properties": {}}, {"name": "H", "species": [{"element": "H", "occu": 1}], "xyz": [2.645498, 0.924973, 2.658123], "properties": {}}, {"name": "H", "species": [{"element": "H", "occu": 1}], "xyz": [2.48386, 0.020063, 4.168346], "properties": {}}, {"name": "H", "species": [{"element": "H", "occu": 1}], "xyz": [4.843388, 0.663893, 3.654804], "properties": {}}, {"name": "H", "species": [{"element": "H", "occu": 1}], "xyz": [4.633352, -1.075032, 3.894701], "properties": {}}, {"name": "H", "species": [{"element": "H", "occu": 1}], "xyz": [3.466346, -2.627193, 2.623645], "properties": {}}, {"name": "H", "species": [{"element": "H", "occu": 1}], "xyz": [1.897115, -2.914197, 1.835812], "properties": {}}, {"name": "H", "species": [{"element": "H", "occu": 1}], "xyz": [5.200331, -0.326874, 0.009608], "properties": {}}, {"name": "H", "species": [{"element": "H", "occu": 1}], "xyz": [3.683216, 0.329691, 0.66754], "properties": {}}]}, "smiles": "FC(F)(F)COCCOCC(F)(F)F", "inchi": "InChI=1S/C6H8F6O2/c7-5(8,9)3-13-1-2-14-4-6(10,11)12/h1-4H2", "formula_alphabetical": "C6 F6 H8 O2", "chemsys": "C-F-H-O", "energy": -982.986180797, "esp": {"1": ["F", -0.199408], "2": ["F", -0.203489], "3": ["F", -0.237732], "4": ["F", -0.19934], "5": ["F", -0.235824], "6": ["F", -0.203209], "7": ["O", -0.353036], "8": ["O", -0.362587], "9": ["C", 0.024049], "10": ["C", 0.059463], "11": ["C", -0.061931], "12": ["C", 0.008591], "13": ["C", 0.616138], "14": ["C", 0.593558], "15": ["H", 0.095079], "16": ["H", 0.072708], "17": ["H", 0.064072], "18": ["H", 0.083887], "19": ["H", 0.105775], "20": ["H", 0.13254], "21": ["H", 0.111272], "22": ["H", 0.089424]}, "dipole_moment": {"X": -0.015, "Y": -0.3706, "Z": -0.5555, "Tot": 0.6679}, "functional": "B3LYP", "basis": "6-31+G*", "phase": "gas", "tag": "lis", "state": "successful", "wall_time (s)": 13.662081897025928, "version": "0.0.1", "gauss_version": "ES64L-G16RevC.01", "last_updated": "2021-12-19T18:39:20.356729", "polarizability": 83.58, "solvent": "DTFEG", "_id": null, "run_locs": ["/gpfs/scratch/ratwi/invited/ESP/DTFEG/run.json", "/gpfs/scratch/ratwi/invited/ESP/DTFEG/ESP/run.json"]}