{"molecule": {"@module": "pymatgen.core.structure", "@class": "Molecule", "charge": 0, "spin_multiplicity": 1, "sites": [{"name": "O", "species": [{"element": "O", "occu": 1}], "xyz": [1.090073, -0.146122, 0.125175], "properties": {}}, {"name": "O", "species": [{"element": "O", "occu": 1}], "xyz": [-0.873256, -3.145571, -0.177968], "properties": {}}, {"name": "O", "species": [{"element": "O", "occu": 1}], "xyz": [3.664887, 2.141142, 1.165426], "properties": {}}, {"name": "C", "species": [{"element": "C", "occu": 1}], "xyz": [0.730985, -1.494129, 0.381693], "properties": {}}, {"name": "C", "species": [{"element": "C", "occu": 1}], "xyz": [2.247355, 0.272297, 0.830507], "properties": {}}, {"name": "C", "species": [{"element": "C", "occu": 1}], "xyz": [-0.515446, -1.798878, -0.434996], "properties": {}}, {"name": "C", "species": [{"element": "C", "occu": 1}], "xyz": [2.508763, 1.724209, 0.460286], "properties": {}}, {"name": "C", "species": [{"element": "C", "occu": 1}], "xyz": [-2.033263, -3.568835, -0.883516], "properties": {}}, {"name": "C", "species": [{"element": "C", "occu": 1}], "xyz": [4.028088, 3.492367, 0.910789], "properties": {}}, {"name": "C", "species": [{"element": "C", "occu": 1}], "xyz": [-2.310645, -5.019671, -0.525457], "properties": {}}, {"name": "C", "species": [{"element": "C", "occu": 1}], "xyz": [5.273584, 3.815638, 1.719682], "properties": {}}, {"name": "H", "species": [{"element": "H", "occu": 1}], "xyz": [1.544256, -2.178508, 0.091788], "properties": {}}, {"name": "H", "species": [{"element": "H", "occu": 1}], "xyz": [0.522726, -1.647432, 1.452655], "properties": {}}, {"name": "H", "species": [{"element": "H", "occu": 1}], "xyz": [2.09628, 0.185433, 1.918377], "properties": {}}, {"name": "H", "species": [{"element": "H", "occu": 1}], "xyz": [3.117742, -0.345498, 0.557398], "properties": {}}, {"name": "H", "species": [{"element": "H", "occu": 1}], "xyz": [-1.327896, -1.11261, -0.145207], "properties": {}}, {"name": "H", "species": [{"element": "H", "occu": 1}], "xyz": [-0.306351, -1.643757, -1.506088], "properties": {}}, {"name": "H", "species": [{"element": "H", "occu": 1}], "xyz": [2.658305, 1.81011, -0.628417], "properties": {}}, {"name": "H", "species": [{"element": "H", "occu": 1}], "xyz": [1.636743, 2.341037, 0.73254], "properties": {}}, {"name": "H", "species": [{"element": "H", "occu": 1}], "xyz": [-2.889939, -2.92872, -0.610849], "properties": {}}, {"name": "H", "species": [{"element": "H", "occu": 1}], "xyz": [-1.870089, -3.458972, -1.969468], "properties": {}}, {"name": "H", "species": [{"element": "H", "occu": 1}], "xyz": [4.216087, 3.63113, -0.167817], "properties": {}}, {"name": "H", "species": [{"element": "H", "occu": 1}], "xyz": [3.196144, 4.161298, 1.19076], "properties": {}}, {"name": "H", "species": [{"element": "H", "occu": 1}], "xyz": [-2.478456, -5.122935, 0.552111], "properties": {}}, {"name": "H", "species": [{"element": "H", "occu": 1}], "xyz": [-3.201614, -5.379041, -1.053976], "properties": {}}, {"name": "H", "species": [{"element": "H", "occu": 1}], "xyz": [-1.460673, -5.652165, -0.803794], "properties": {}}, {"name": "H", "species": [{"element": "H", "occu": 1}], "xyz": [6.098381, 3.153789, 1.433955], "properties": {}}, {"name": "H", "species": [{"element": "H", "occu": 1}], "xyz": [5.582026, 4.853451, 1.546149], "properties": {}}, {"name": "H", "species": [{"element": "H", "occu": 1}], "xyz": [5.080482, 3.683014, 2.789774], "properties": {}}]}, "smiles": "O(CCOCC)CCOCC", "inchi": "InChI=1S/C8H18O3/c1-3-9-5-7-11-8-6-10-4-2/h3-8H2,1-2H3", "formula_alphabetical": "C8 H18 O3", "chemsys": "C-H-O", "energy": -541.348933389, "esp": {"1": ["O", -0.663336], "2": ["O", -0.597916], "3": ["O", -0.610505], "4": ["C", 0.44892], "5": ["C", 0.368173], "6": ["C", 0.295335], "7": ["C", 0.318783], "8": ["C", 0.498544], "9": ["C", 0.542479], "10": ["C", -0.291884], "11": ["C", -0.309812], "12": ["H", -0.042594], "13": ["H", -0.043097], "14": ["H", -0.023932], "15": ["H", -0.020929], "16": ["H", -0.015626], "17": ["H", -0.01473], "18": ["H", -0.016022], "19": ["H", -0.014674], "20": ["H", -0.057945], "21": ["H", -0.059333], "22": ["H", -0.070565], "23": ["H", -0.070967], "24": ["H", 0.086054], "25": ["H", 0.050068], "26": ["H", 0.08583], "27": ["H", 0.087724], "28": ["H", 0.053207], "29": ["H", 0.088748]}, "dipole_moment": {"X": -0.6231, "Y": 0.7257, "Z": -0.751, "Tot": 1.2161}, "functional": "B3LYP", "basis": "6-31+G*", "phase": "gas", "tag": "lis", "state": "successful", "wall_time (s)": 14.632077953996486, "version": "0.0.1", "gauss_version": "ES64L-G16RevC.01", "last_updated": "2021-12-19T18:39:17.963443", "polarizability": 111.25, "solvent": "EEE", "_id": null, "run_locs": ["/gpfs/scratch/ratwi/invited/ESP/EEE/run.json", "/gpfs/scratch/ratwi/invited/ESP/EEE/ESP/run.json"]}