{"molecule": {"@module": "pymatgen.core.structure", "@class": "Molecule", "charge": 0, "spin_multiplicity": 1, "sites": [{"name": "S", "species": [{"element": "S", "occu": 1}], "xyz": [0.956029, 0.091716, 0.007893], "properties": {}}, {"name": "O", "species": [{"element": "O", "occu": 1}], "xyz": [0.49045, 1.453431, 0.347767], "properties": {}}, {"name": "O", "species": [{"element": "O", "occu": 1}], "xyz": [0.530711, -0.540225, -1.259946], "properties": {}}, {"name": "C", "species": [{"element": "C", "occu": 1}], "xyz": [0.472434, -1.019625, 1.398968], "properties": {}}, {"name": "C", "species": [{"element": "C", "occu": 1}], "xyz": [2.783829, 0.121191, 0.03527], "properties": {}}, {"name": "C", "species": [{"element": "C", "occu": 1}], "xyz": [-1.050406, -0.931557, 1.545592], "properties": {}}, {"name": "C", "species": [{"element": "C", "occu": 1}], "xyz": [0.964479, -2.447632, 1.158712], "properties": {}}, {"name": "C", "species": [{"element": "C", "occu": 1}], "xyz": [3.299759, 1.125723, -0.99563], "properties": {}}, {"name": "H", "species": [{"element": "H", "occu": 1}], "xyz": [0.960407, -0.573099, 2.274101], "properties": {}}, {"name": "H", "species": [{"element": "H", "occu": 1}], "xyz": [3.074086, 0.39398, 1.055405], "properties": {}}, {"name": "H", "species": [{"element": "H", "occu": 1}], "xyz": [3.120537, -0.895785, -0.183264], "properties": {}}, {"name": "H", "species": [{"element": "H", "occu": 1}], "xyz": [-1.547246, -1.328975, 0.654135], "properties": {}}, {"name": "H", "species": [{"element": "H", "occu": 1}], "xyz": [-1.360247, -1.530689, 2.409398], "properties": {}}, {"name": "H", "species": [{"element": "H", "occu": 1}], "xyz": [-1.377718, 0.100242, 1.69919], "properties": {}}, {"name": "H", "species": [{"element": "H", "occu": 1}], "xyz": [2.056762, -2.514871, 1.122431], "properties": {}}, {"name": "H", "species": [{"element": "H", "occu": 1}], "xyz": [0.619994, -3.088683, 1.97851], "properties": {}}, {"name": "H", "species": [{"element": "H", "occu": 1}], "xyz": [0.559945, -2.83844, 0.219617], "properties": {}}, {"name": "H", "species": [{"element": "H", "occu": 1}], "xyz": [2.933965, 2.132459, -0.774574], "properties": {}}, {"name": "H", "species": [{"element": "H", "occu": 1}], "xyz": [4.394896, 1.137589, -0.973773], "properties": {}}, {"name": "H", "species": [{"element": "H", "occu": 1}], "xyz": [2.976224, 0.848939, -2.003652], "properties": {}}]}, "smiles": "S(=O)(=O)(C(C)C)CC", "inchi": "InChI=1S/C5H12O2S/c1-4-8(6,7)5(2)3/h5H,4H2,1-3H3", "formula_alphabetical": "C5 H12 O2 S1", "chemsys": "C-H-O-S", "energy": -746.362884627, "esp": {"1": ["S", 0.798953], "2": ["O", -0.52814], "3": ["O", -0.516778], "4": ["C", 0.173104], "5": ["C", -0.067836], "6": ["C", -0.360177], "7": ["C", -0.357592], "8": ["C", -0.212001], "9": ["H", 0.031682], "10": ["H", 0.060552], "11": ["H", 0.083122], "12": ["H", 0.122681], "13": ["H", 0.106361], "14": ["H", 0.112024], "15": ["H", 0.066676], "16": ["H", 0.119418], "17": ["H", 0.113752], "18": ["H", 0.092706], "19": ["H", 0.072329], "20": ["H", 0.089165]}, "dipole_moment": {"X": 2.7905, "Y": -2.4632, "Z": 2.9726, "Tot": 4.7635}, "functional": "B3LYP", "basis": "6-31+G*", "phase": "gas", "tag": "lis", "state": "successful", "wall_time (s)": 8.576215864974074, "version": "0.0.1", "gauss_version": "ES64L-G16RevC.01", "last_updated": "2021-12-19T18:39:59.193501", "polarizability": 85.93, "solvent": "EiPS", "_id": null, "run_locs": ["/gpfs/scratch/ratwi/invited/ESP/EiPS/run.json", "/gpfs/scratch/ratwi/invited/ESP/EiPS/ESP/run.json"]}