{"molecule": {"@module": "pymatgen.core.structure", "@class": "Molecule", "charge": 0, "spin_multiplicity": 1, "sites": [{"name": "S", "species": [{"element": "S", "occu": 1}], "xyz": [0.884803, 0.005633, -0.01905], "properties": {}}, {"name": "O", "species": [{"element": "O", "occu": 1}], "xyz": [0.502952, -0.909142, -1.11235], "properties": {}}, {"name": "O", "species": [{"element": "O", "occu": 1}], "xyz": [0.407427, -0.236031, 1.356316], "properties": {}}, {"name": "C", "species": [{"element": "C", "occu": 1}], "xyz": [0.393551, 1.696656, -0.499145], "properties": {}}, {"name": "C", "species": [{"element": "C", "occu": 1}], "xyz": [2.693514, 0.088381, 0.028345], "properties": {}}, {"name": "C", "species": [{"element": "C", "occu": 1}], "xyz": [-1.129262, 1.796646, -0.584898], "properties": {}}, {"name": "H", "species": [{"element": "H", "occu": 1}], "xyz": [0.807906, 2.365689, 0.262177], "properties": {}}, {"name": "H", "species": [{"element": "H", "occu": 1}], "xyz": [0.874219, 1.895198, -1.462699], "properties": {}}, {"name": "H", "species": [{"element": "H", "occu": 1}], "xyz": [3.032523, -0.910845, 0.313425], "properties": {}}, {"name": "H", "species": [{"element": "H", "occu": 1}], "xyz": [3.068403, 0.346042, -0.964832], "properties": {}}, {"name": "H", "species": [{"element": "H", "occu": 1}], "xyz": [3.001026, 0.820557, 0.778468], "properties": {}}, {"name": "H", "species": [{"element": "H", "occu": 1}], "xyz": [-1.588798, 1.569028, 0.381545], "properties": {}}, {"name": "H", "species": [{"element": "H", "occu": 1}], "xyz": [-1.410787, 2.815094, -0.873227], "properties": {}}, {"name": "H", "species": [{"element": "H", "occu": 1}], "xyz": [-1.522986, 1.101912, -1.332774], "properties": {}}]}, "smiles": "S(=O)(=O)(CC)C", "inchi": "InChI=1S/C3H8O2S/c1-3-6(2,4)5/h3H2,1-2H3", "formula_alphabetical": "C3 H8 O2 S1", "chemsys": "C-H-O-S", "energy": -667.73094329, "esp": {"1": ["S", 0.970575], "2": ["O", -0.542003], "3": ["O", -0.540759], "4": ["C", -0.035157], "5": ["C", -0.625544], "6": ["C", -0.211926], "7": ["H", 0.060478], "8": ["H", 0.061949], "9": ["H", 0.241096], "10": ["H", 0.189461], "11": ["H", 0.189806], "12": ["H", 0.082506], "13": ["H", 0.076767], "14": ["H", 0.082751]}, "dipole_moment": {"X": 2.5226, "Y": 4.0103, "Z": -0.9957, "Tot": 4.8413}, "functional": "B3LYP", "basis": "6-31+G*", "phase": "gas", "tag": "lis", "state": "successful", "wall_time (s)": 6.919315548002487, "version": "0.0.1", "gauss_version": "ES64L-G16RevC.01", "last_updated": "2021-12-19T18:40:10.997086", "polarizability": 62.73, "solvent": "EMS", "_id": null, "run_locs": ["/gpfs/scratch/ratwi/invited/ESP/EMS/run.json", "/gpfs/scratch/ratwi/invited/ESP/EMS/ESP/run.json"]}