{"molecule": {"@module": "pymatgen.core.structure", "@class": "Molecule", "charge": 0, "spin_multiplicity": 1, "sites": [{"name": "O", "species": [{"element": "O", "occu": 1}], "xyz": [1.155367, 0.104531, 0.171513], "properties": {}}, {"name": "C", "species": [{"element": "C", "occu": 1}], "xyz": [1.080579, 2.496628, 0.030769], "properties": {}}, {"name": "C", "species": [{"element": "C", "occu": 1}], "xyz": [0.756394, 1.180364, -0.666347], "properties": {}}, {"name": "C", "species": [{"element": "C", "occu": 1}], "xyz": [0.922281, -1.17644, -0.395192], "properties": {}}, {"name": "C", "species": [{"element": "C", "occu": 1}], "xyz": [2.581101, 2.694276, 0.273364], "properties": {}}, {"name": "C", "species": [{"element": "C", "occu": 1}], "xyz": [1.38879, -2.232843, 0.593676], "properties": {}}, {"name": "H", "species": [{"element": "H", "occu": 1}], "xyz": [0.685455, 3.314426, -0.588099], "properties": {}}, {"name": "H", "species": [{"element": "H", "occu": 1}], "xyz": [0.537842, 2.527058, 0.984816], "properties": {}}, {"name": "H", "species": [{"element": "H", "occu": 1}], "xyz": [1.28813, 1.118582, -1.633483], "properties": {}}, {"name": "H", "species": [{"element": "H", "occu": 1}], "xyz": [-0.325258, 1.110577, -0.876651], "properties": {}}, {"name": "H", "species": [{"element": "H", "occu": 1}], "xyz": [-0.152405, -1.298974, -0.617555], "properties": {}}, {"name": "H", "species": [{"element": "H", "occu": 1}], "xyz": [1.468773, -1.269057, -1.350116], "properties": {}}, {"name": "H", "species": [{"element": "H", "occu": 1}], "xyz": [3.13583, 2.689053, -0.674411], "properties": {}}, {"name": "H", "species": [{"element": "H", "occu": 1}], "xyz": [2.77825, 3.650483, 0.772524], "properties": {}}, {"name": "H", "species": [{"element": "H", "occu": 1}], "xyz": [2.979716, 1.890242, 0.900288], "properties": {}}, {"name": "H", "species": [{"element": "H", "occu": 1}], "xyz": [0.839111, -2.143392, 1.537027], "properties": {}}, {"name": "H", "species": [{"element": "H", "occu": 1}], "xyz": [1.223431, -3.237504, 0.186501], "properties": {}}, {"name": "H", "species": [{"element": "H", "occu": 1}], "xyz": [2.456963, -2.11341, 0.805546], "properties": {}}]}, "smiles": "O(CCC)CC", "inchi": "InChI=1S/C5H12O/c1-3-5-6-4-2/h3-5H2,1-2H3", "formula_alphabetical": "C5 H12 O1", "chemsys": "C-H-O", "energy": -272.988020313, "esp": {"1": ["O", -0.423941], "2": ["C", 0.135569], "3": ["C", 0.074217], "4": ["C", 0.371902], "5": ["C", -0.18709], "6": ["C", -0.320383], "7": ["H", -0.024416], "8": ["H", 0.004396], "9": ["H", 0.026244], "10": ["H", 0.010436], "11": ["H", -0.024562], "12": ["H", -0.028841], "13": ["H", 0.05023], "14": ["H", 0.03819], "15": ["H", 0.048429], "16": ["H", 0.088251], "17": ["H", 0.067949], "18": ["H", 0.093421]}, "dipole_moment": {"X": -0.496, "Y": -0.2122, "Z": -1.0127, "Tot": 1.1474}, "functional": "B3LYP", "basis": "6-31+G*", "phase": "gas", "tag": "lis", "state": "successful", "wall_time (s)": 5.818943463003961, "version": "0.0.1", "gauss_version": "ES64L-G16RevC.01", "last_updated": "2021-12-19T18:39:48.157508", "polarizability": 65.58, "solvent": "EPE", "_id": null, "run_locs": ["/gpfs/scratch/ratwi/invited/ESP/EPE/run.json", "/gpfs/scratch/ratwi/invited/ESP/EPE/ESP/run.json"]}