{"molecule": {"@module": "pymatgen.core.structure", "@class": "Molecule", "charge": 0, "spin_multiplicity": 1, "sites": [{"name": "F", "species": [{"element": "F", "occu": 1}], "xyz": [1.058853, -0.110348, -0.272919], "properties": {}}, {"name": "F", "species": [{"element": "F", "occu": 1}], "xyz": [2.552054, 1.489316, -0.209176], "properties": {}}, {"name": "F", "species": [{"element": "F", "occu": 1}], "xyz": [2.959898, -1.843906, -1.352763], "properties": {}}, {"name": "F", "species": [{"element": "F", "occu": 1}], "xyz": [2.690591, 0.030051, -2.491884], "properties": {}}, {"name": "O", "species": [{"element": "O", "occu": 1}], "xyz": [2.903581, -0.383167, 1.0028], "properties": {}}, {"name": "C", "species": [{"element": "C", "occu": 1}], "xyz": [2.403846, 0.117701, -0.140584], "properties": {}}, {"name": "C", "species": [{"element": "C", "occu": 1}], "xyz": [2.280268, 0.058434, 2.244577], "properties": {}}, {"name": "C", "species": [{"element": "C", "occu": 1}], "xyz": [3.167121, -0.497291, -1.330312], "properties": {}}, {"name": "C", "species": [{"element": "C", "occu": 1}], "xyz": [3.047518, -0.592188, 3.378612], "properties": {}}, {"name": "H", "species": [{"element": "H", "occu": 1}], "xyz": [2.332484, 1.151104, 2.290572], "properties": {}}, {"name": "H", "species": [{"element": "H", "occu": 1}], "xyz": [1.230725, -0.251393, 2.232314], "properties": {}}, {"name": "H", "species": [{"element": "H", "occu": 1}], "xyz": [4.239414, -0.297581, -1.254546], "properties": {}}, {"name": "H", "species": [{"element": "H", "occu": 1}], "xyz": [4.09762, -0.28232, 3.365841], "properties": {}}, {"name": "H", "species": [{"element": "H", "occu": 1}], "xyz": [2.608252, -0.294488, 4.337504], "properties": {}}, {"name": "H", "species": [{"element": "H", "occu": 1}], "xyz": [3.004016, -1.683282, 3.299383], "properties": {}}]}, "smiles": "FC(F)(OCC)C(F)F", "inchi": "InChI=1S/C4H6F4O/c1-2-9-4(7,8)3(5)6/h3H,2H2,1H3", "formula_alphabetical": "C4 F4 H6 O1", "chemsys": "C-F-H-O", "energy": -630.660953627, "esp": {"1": ["F", -0.181893], "2": ["F", -0.221641], "3": ["F", -0.206289], "4": ["F", -0.211041], "5": ["O", -0.440078], "6": ["C", 0.42436], "7": ["C", 0.448959], "8": ["C", 0.35762], "9": ["C", -0.39291], "10": ["H", -0.002021], "11": ["H", -0.00288], "12": ["H", 0.099662], "13": ["H", 0.115562], "14": ["H", 0.090275], "15": ["H", 0.122314]}, "dipole_moment": {"X": 1.2255, "Y": 0.3187, "Z": 3.124, "Tot": 3.3709}, "functional": "B3LYP", "basis": "6-31+G*", "phase": "gas", "tag": "lis", "state": "successful", "wall_time (s)": 7.184648334980011, "version": "0.0.1", "gauss_version": "ES64L-G16RevC.01", "last_updated": "2021-12-19T18:42:12.559903", "polarizability": 56.01, "solvent": "ETFE", "_id": null, "run_locs": ["/gpfs/scratch/ratwi/invited/ESP/ETFE/run.json", "/gpfs/scratch/ratwi/invited/ESP/ETFE/ESP/run.json"]}