{"molecule": {"@module": "pymatgen.core.structure", "@class": "Molecule", "charge": 0, "spin_multiplicity": 1, "sites": [{"name": "F", "species": [{"element": "F", "occu": 1}], "xyz": [1.089531, 0.056102, 0.165118], "properties": {}}, {"name": "F", "species": [{"element": "F", "occu": 1}], "xyz": [3.018039, 0.241894, 1.229454], "properties": {}}, {"name": "F", "species": [{"element": "F", "occu": 1}], "xyz": [2.587398, 2.263921, -0.527966], "properties": {}}, {"name": "F", "species": [{"element": "F", "occu": 1}], "xyz": [4.221532, 0.934743, -1.209717], "properties": {}}, {"name": "O", "species": [{"element": "O", "occu": 1}], "xyz": [2.354922, -1.700987, -1.672836], "properties": {}}, {"name": "C", "species": [{"element": "C", "occu": 1}], "xyz": [2.450039, -0.043811, 0.016498], "properties": {}}, {"name": "C", "species": [{"element": "C", "occu": 1}], "xyz": [2.836579, -1.462858, -0.370154], "properties": {}}, {"name": "C", "species": [{"element": "C", "occu": 1}], "xyz": [2.867494, 1.021491, -1.011726], "properties": {}}, {"name": "C", "species": [{"element": "C", "occu": 1}], "xyz": [2.64923, -3.012669, -2.157837], "properties": {}}, {"name": "C", "species": [{"element": "C", "occu": 1}], "xyz": [2.086244, -3.135204, -3.56263], "properties": {}}, {"name": "H", "species": [{"element": "H", "occu": 1}], "xyz": [3.93176, -1.548944, -0.317877], "properties": {}}, {"name": "H", "species": [{"element": "H", "occu": 1}], "xyz": [2.387609, -2.143747, 0.369163], "properties": {}}, {"name": "H", "species": [{"element": "H", "occu": 1}], "xyz": [2.357333, 0.878185, -1.966051], "properties": {}}, {"name": "H", "species": [{"element": "H", "occu": 1}], "xyz": [3.740252, -3.168828, -2.15423], "properties": {}}, {"name": "H", "species": [{"element": "H", "occu": 1}], "xyz": [2.198158, -3.760112, -1.485257], "properties": {}}, {"name": "H", "species": [{"element": "H", "occu": 1}], "xyz": [2.543101, -2.39284, -4.225769], "properties": {}}, {"name": "H", "species": [{"element": "H", "occu": 1}], "xyz": [2.29046, -4.134004, -3.965161], "properties": {}}, {"name": "H", "species": [{"element": "H", "occu": 1}], "xyz": [1.002799, -2.976031, -3.556672], "properties": {}}]}, "smiles": "FC(F)(COCC)C(F)F", "inchi": "InChI=1S/C5H8F4O/c1-2-10-3-5(8,9)4(6)7/h4H,2-3H2,1H3", "formula_alphabetical": "C5 F4 H8 O1", "chemsys": "C-F-H-O", "energy": -669.961368939, "esp": {"1": ["F", -0.212647], "2": ["F", -0.209151], "3": ["F", -0.211422], "4": ["F", -0.209818], "5": ["O", -0.383707], "6": ["C", 0.388113], "7": ["C", -0.108814], "8": ["C", 0.35104], "9": ["C", 0.345538], "10": ["C", -0.328997], "11": ["H", 0.0952], "12": ["H", 0.13263], "13": ["H", 0.086595], "14": ["H", -0.005563], "15": ["H", -0.006874], "16": ["H", 0.097248], "17": ["H", 0.081009], "18": ["H", 0.099621]}, "dipole_moment": {"X": 0.3106, "Y": -3.6514, "Z": -1.8539, "Tot": 4.1068}, "functional": "B3LYP", "basis": "6-31+G*", "phase": "gas", "tag": "lis", "state": "successful", "wall_time (s)": 9.230395004007732, "version": "0.0.1", "gauss_version": "ES64L-G16RevC.01", "last_updated": "2021-12-19T18:39:20.179868", "polarizability": 67.55, "solvent": "ETTFPE", "_id": null, "run_locs": ["/gpfs/scratch/ratwi/invited/ESP/ETTFPE/run.json", "/gpfs/scratch/ratwi/invited/ESP/ETTFPE/ESP/run.json"]}