{"molecule": {"@module": "pymatgen.core.structure", "@class": "Molecule", "charge": 0, "spin_multiplicity": 1, "sites": [{"name": "F", "species": [{"element": "F", "occu": 1}], "xyz": [3.006008, -3.070386, -0.309303], "properties": {}}, {"name": "F", "species": [{"element": "F", "occu": 1}], "xyz": [1.333903, -1.671289, -0.501668], "properties": {}}, {"name": "F", "species": [{"element": "F", "occu": 1}], "xyz": [0.307268, 2.863501, 2.534594], "properties": {}}, {"name": "F", "species": [{"element": "F", "occu": 1}], "xyz": [0.501125, 1.795797, 0.633876], "properties": {}}, {"name": "F", "species": [{"element": "F", "occu": 1}], "xyz": [4.673591, -1.223472, -1.606573], "properties": {}}, {"name": "F", "species": [{"element": "F", "occu": 1}], "xyz": [2.870561, -1.803274, -2.745398], "properties": {}}, {"name": "F", "species": [{"element": "F", "occu": 1}], "xyz": [-1.73794, 1.098503, 3.293777], "properties": {}}, {"name": "F", "species": [{"element": "F", "occu": 1}], "xyz": [-2.089868, 2.158806, 1.386975], "properties": {}}, {"name": "O", "species": [{"element": "O", "occu": 1}], "xyz": [3.14932, -1.052529, 0.688165], "properties": {}}, {"name": "O", "species": [{"element": "O", "occu": 1}], "xyz": [0.89056, 0.684877, 2.559662], "properties": {}}, {"name": "C", "species": [{"element": "C", "occu": 1}], "xyz": [2.984314, -0.398124, 2.986913], "properties": {}}, {"name": "C", "species": [{"element": "C", "occu": 1}], "xyz": [2.685136, -1.507226, 1.989824], "properties": {}}, {"name": "C", "species": [{"element": "C", "occu": 1}], "xyz": [2.323894, 0.924339, 2.628103], "properties": {}}, {"name": "C", "species": [{"element": "C", "occu": 1}], "xyz": [2.707313, -1.736566, -0.384295], "properties": {}}, {"name": "C", "species": [{"element": "C", "occu": 1}], "xyz": [0.146991, 1.63254, 1.957563], "properties": {}}, {"name": "C", "species": [{"element": "C", "occu": 1}], "xyz": [3.316033, -1.117448, -1.657802], "properties": {}}, {"name": "C", "species": [{"element": "C", "occu": 1}], "xyz": [-1.33364, 1.206055, 1.996935], "properties": {}}, {"name": "H", "species": [{"element": "H", "occu": 1}], "xyz": [2.644426, -0.728931, 3.975934], "properties": {}}, {"name": "H", "species": [{"element": "H", "occu": 1}], "xyz": [4.066915, -0.232491, 3.047372], "properties": {}}, {"name": "H", "species": [{"element": "H", "occu": 1}], "xyz": [1.611804, -1.705116, 1.935223], "properties": {}}, {"name": "H", "species": [{"element": "H", "occu": 1}], "xyz": [3.215751, -2.428632, 2.246706], "properties": {}}, {"name": "H", "species": [{"element": "H", "occu": 1}], "xyz": [2.514121, 1.685285, 3.390542], "properties": {}}, {"name": "H", "species": [{"element": "H", "occu": 1}], "xyz": [2.671135, 1.283976, 1.656357], "properties": {}}, {"name": "H", "species": [{"element": "H", "occu": 1}], "xyz": [3.037345, -0.064363, -1.752899], "properties": {}}, {"name": "H", "species": [{"element": "H", "occu": 1}], "xyz": [-1.478574, 0.247719, 1.490686], "properties": {}}]}, "smiles": "FC(F)(OCCCOC(F)(F)C(F)F)C(F)F", "inchi": "InChI=1S/C7H8F8O2/c8-4(9)6(12,13)16-2-1-3-17-7(14,15)5(10)11/h4-5H,1-3H2", "formula_alphabetical": "C7 F8 H8 O2", "chemsys": "C-F-H-O", "energy": -1220.80021226, "esp": {"1": ["F", -0.192229], "2": ["F", -0.230926], "3": ["F", -0.192848], "4": ["F", -0.231953], "5": ["F", -0.203866], "6": ["F", -0.197703], "7": ["F", -0.21631], "8": ["F", -0.213697], "9": ["O", -0.39988], "10": ["O", -0.393711], "11": ["C", -0.339755], "12": ["C", 0.340997], "13": ["C", 0.283599], "14": ["C", 0.48067], "15": ["C", 0.470055], "16": ["C", 0.297507], "17": ["C", 0.361634], "18": ["H", 0.113139], "19": ["H", 0.112875], "20": ["H", 0.016636], "21": ["H", 0.027899], "22": ["H", 0.045325], "23": ["H", 0.033345], "24": ["H", 0.124873], "25": ["H", 0.104323]}, "dipole_moment": {"X": 1.7875, "Y": -0.3963, "Z": 2.5216, "Tot": 3.1162}, "functional": "B3LYP", "basis": "6-31+G*", "phase": "gas", "tag": "lis", "state": "successful", "wall_time (s)": 18.563323349982966, "version": "0.0.1", "gauss_version": "ES64L-G16RevC.01", "last_updated": "2021-12-19T18:42:45.054740", "polarizability": 96.95, "solvent": "FDE", "_id": null, "run_locs": ["/gpfs/scratch/ratwi/invited/ESP/FDE/run.json", "/gpfs/scratch/ratwi/invited/ESP/FDE/ESP/run.json"]}