{"molecule": {"@module": "pymatgen.core.structure", "@class": "Molecule", "charge": 0, "spin_multiplicity": 1, "sites": [{"name": "O", "species": [{"element": "O", "occu": 1}], "xyz": [1.138353, 0.642565, -0.034895], "properties": {}}, {"name": "O", "species": [{"element": "O", "occu": 1}], "xyz": [2.771464, 1.098907, 2.327502], "properties": {}}, {"name": "O", "species": [{"element": "O", "occu": 1}], "xyz": [0.6317, -0.268631, -3.476982], "properties": {}}, {"name": "O", "species": [{"element": "O", "occu": 1}], "xyz": [3.879901, 3.391839, 3.745744], "properties": {}}, {"name": "C", "species": [{"element": "C", "occu": 1}], "xyz": [0.947468, 1.785708, 0.776256], "properties": {}}, {"name": "C", "species": [{"element": "C", "occu": 1}], "xyz": [1.414365, 1.487558, 2.196426], "properties": {}}, {"name": "C", "species": [{"element": "C", "occu": 1}], "xyz": [0.740948, 0.833724, -1.381927], "properties": {}}, {"name": "C", "species": [{"element": "C", "occu": 1}], "xyz": [3.755837, 1.976954, 1.807385], "properties": {}}, {"name": "C", "species": [{"element": "C", "occu": 1}], "xyz": [1.021275, -0.461824, -2.12759], "properties": {}}, {"name": "C", "species": [{"element": "C", "occu": 1}], "xyz": [3.718012, 3.404512, 2.341034], "properties": {}}, {"name": "C", "species": [{"element": "C", "occu": 1}], "xyz": [0.840443, -1.413724, -4.283594], "properties": {}}, {"name": "C", "species": [{"element": "C", "occu": 1}], "xyz": [3.852765, 4.685217, 4.319225], "properties": {}}, {"name": "H", "species": [{"element": "H", "occu": 1}], "xyz": [1.486956, 2.647631, 0.348], "properties": {}}, {"name": "H", "species": [{"element": "H", "occu": 1}], "xyz": [-0.121459, 2.061454, 0.818123], "properties": {}}, {"name": "H", "species": [{"element": "H", "occu": 1}], "xyz": [1.19324, 2.365203, 2.826039], "properties": {}}, {"name": "H", "species": [{"element": "H", "occu": 1}], "xyz": [0.844674, 0.639698, 2.588359], "properties": {}}, {"name": "H", "species": [{"element": "H", "occu": 1}], "xyz": [-0.331888, 1.078067, -1.446427], "properties": {}}, {"name": "H", "species": [{"element": "H", "occu": 1}], "xyz": [1.305301, 1.659599, -1.845286], "properties": {}}, {"name": "H", "species": [{"element": "H", "occu": 1}], "xyz": [4.709702, 1.518694, 2.085134], "properties": {}}, {"name": "H", "species": [{"element": "H", "occu": 1}], "xyz": [3.705469, 2.016561, 0.706646], "properties": {}}, {"name": "H", "species": [{"element": "H", "occu": 1}], "xyz": [2.093496, -0.707113, -2.057763], "properties": {}}, {"name": "H", "species": [{"element": "H", "occu": 1}], "xyz": [0.453908, -1.287401, -1.668019], "properties": {}}, {"name": "H", "species": [{"element": "H", "occu": 1}], "xyz": [4.535048, 3.97055, 1.857494], "properties": {}}, {"name": "H", "species": [{"element": "H", "occu": 1}], "xyz": [2.773718, 3.909317, 2.072257], "properties": {}}, {"name": "H", "species": [{"element": "H", "occu": 1}], "xyz": [1.905245, -1.696706, -4.311602], "properties": {}}, {"name": "H", "species": [{"element": "H", "occu": 1}], "xyz": [0.25618, -2.274035, -3.918723], "properties": {}}, {"name": "H", "species": [{"element": "H", "occu": 1}], "xyz": [0.510306, -1.158456, -5.293962], "properties": {}}, {"name": "H", "species": [{"element": "H", "occu": 1}], "xyz": [4.668433, 5.317231, 3.930523], "properties": {}}, {"name": "H", "species": [{"element": "H", "occu": 1}], "xyz": [2.892541, 5.191892, 4.125486], "properties": {}}, {"name": "H", "species": [{"element": "H", "occu": 1}], "xyz": [3.979632, 4.560229, 5.397685], "properties": {}}]}, "smiles": "O(CCOCCOC)CCOC", "inchi": "InChI=1S/C8H18O4/c1-9-3-5-11-7-8-12-6-4-10-2/h3-8H2,1-2H3", "formula_alphabetical": "C8 H18 O4", "chemsys": "C-H-O", "energy": -616.538574123, "esp": {"1": ["O", -0.43747], "2": ["O", -0.286427], "3": ["O", -0.461054], "4": ["O", -0.304816], "5": ["C", 0.308741], "6": ["C", -0.202673], "7": ["C", 0.160864], "8": ["C", -0.227055], "9": ["C", 0.261878], "10": ["C", 0.181027], "11": ["C", 0.075323], "12": ["C", -0.068223], "13": ["H", -0.010377], "14": ["H", -0.008295], "15": ["H", 0.125913], "16": ["H", 0.147122], "17": ["H", 0.019274], "18": ["H", 0.012646], "19": ["H", 0.151793], "20": ["H", 0.150426], "21": ["H", 0.017052], "22": ["H", 0.010089], "23": ["H", 0.026856], "24": ["H", 0.024401], "25": ["H", 0.025304], "26": ["H", 0.028415], "27": ["H", 0.070699], "28": ["H", 0.055809], "29": ["H", 0.058204], "30": ["H", 0.094555]}, "dipole_moment": {"X": -0.4082, "Y": 2.0801, "Z": -1.2167, "Tot": 2.4442}, "functional": "B3LYP", "basis": "6-31+G*", "phase": "gas", "tag": "lis", "state": "successful", "wall_time (s)": 14.61893161199987, "version": "0.0.1", "gauss_version": "ES64L-G16RevC.01", "last_updated": "2021-12-19T18:39:20.172258", "polarizability": 115.03, "solvent": "G3", "_id": null, "run_locs": ["/gpfs/scratch/ratwi/invited/ESP/G3/run.json", "/gpfs/scratch/ratwi/invited/ESP/G3/ESP/run.json"]}