{"molecule": {"@module": "pymatgen.core.structure", "@class": "Molecule", "charge": 0, "spin_multiplicity": 1, "sites": [{"name": "F", "species": [{"element": "F", "occu": 1}], "xyz": [0.951978, -0.718741, 0.216034], "properties": {}}, {"name": "F", "species": [{"element": "F", "occu": 1}], "xyz": [2.926529, -1.377708, 0.872537], "properties": {}}, {"name": "F", "species": [{"element": "F", "occu": 1}], "xyz": [2.665087, -0.528166, -1.120068], "properties": {}}, {"name": "F", "species": [{"element": "F", "occu": 1}], "xyz": [2.556422, 2.459606, 2.525656], "properties": {}}, {"name": "F", "species": [{"element": "F", "occu": 1}], "xyz": [0.787929, 1.21043, 2.267421], "properties": {}}, {"name": "F", "species": [{"element": "F", "occu": 1}], "xyz": [2.650685, 0.328713, 2.984663], "properties": {}}, {"name": "O", "species": [{"element": "O", "occu": 1}], "xyz": [1.967948, 1.939604, -0.124782], "properties": {}}, {"name": "C", "species": [{"element": "C", "occu": 1}], "xyz": [2.584444, 0.985747, 0.687936], "properties": {}}, {"name": "C", "species": [{"element": "C", "occu": 1}], "xyz": [2.263097, -0.432503, 0.171588], "properties": {}}, {"name": "C", "species": [{"element": "C", "occu": 1}], "xyz": [2.12343, 1.238822, 2.135804], "properties": {}}, {"name": "C", "species": [{"element": "C", "occu": 1}], "xyz": [2.826965, 2.599652, -1.061474], "properties": {}}, {"name": "H", "species": [{"element": "H", "occu": 1}], "xyz": [3.679094, 1.072527, 0.695747], "properties": {}}, {"name": "H", "species": [{"element": "H", "occu": 1}], "xyz": [3.630247, 3.136054, -0.538465], "properties": {}}, {"name": "H", "species": [{"element": "H", "occu": 1}], "xyz": [3.252111, 1.887724, -1.778487], "properties": {}}, {"name": "H", "species": [{"element": "H", "occu": 1}], "xyz": [2.194926, 3.316447, -1.58827], "properties": {}}]}, "smiles": "FC(F)(F)C(OC)C(F)(F)F", "inchi": "InChI=1S/C4H4F6O/c1-11-2(3(5,6)7)4(8,9)10/h2H,1H3", "formula_alphabetical": "C4 F6 H4 O1", "chemsys": "C-F-H-O", "energy": -829.142597446, "esp": {"1": ["F", -0.158221], "2": ["F", -0.195177], "3": ["F", -0.175222], "4": ["F", -0.16976], "5": ["F", -0.157391], "6": ["F", -0.180976], "7": ["O", -0.291381], "8": ["C", -0.132908], "9": ["C", 0.547237], "10": ["C", 0.517343], "11": ["C", 0.013598], "12": ["H", 0.165659], "13": ["H", 0.062289], "14": ["H", 0.059443], "15": ["H", 0.095468]}, "dipole_moment": {"X": 2.2096, "Y": 1.6646, "Z": -1.7861, "Tot": 3.2929}, "functional": "B3LYP", "basis": "6-31+G*", "phase": "gas", "tag": "lis", "state": "successful", "wall_time (s)": 7.912339589005569, "version": "0.0.1", "gauss_version": "ES64L-G16RevC.01", "last_updated": "2021-12-19T18:45:28.922950", "polarizability": 57.27, "solvent": "HFME", "_id": null, "run_locs": ["/gpfs/scratch/ratwi/invited/ESP/HFME/run.json", "/gpfs/scratch/ratwi/invited/ESP/HFME/ESP/run.json"]}