{"molecule": {"@module": "pymatgen.core.structure", "@class": "Molecule", "charge": 0, "spin_multiplicity": 1, "sites": [{"name": "O", "species": [{"element": "O", "occu": 1}], "xyz": [1.224625, 0.047004, -0.123365], "properties": {}}, {"name": "C", "species": [{"element": "C", "occu": 1}], "xyz": [2.519188, -2.20264, 1.253139], "properties": {}}, {"name": "C", "species": [{"element": "C", "occu": 1}], "xyz": [3.094778, -1.488481, 2.487595], "properties": {}}, {"name": "C", "species": [{"element": "C", "occu": 1}], "xyz": [1.00338, -2.039448, 1.040259], "properties": {}}, {"name": "C", "species": [{"element": "C", "occu": 1}], "xyz": [2.488131, -1.929768, 3.826735], "properties": {}}, {"name": "C", "species": [{"element": "C", "occu": 1}], "xyz": [0.535849, -0.591652, 0.943379], "properties": {}}, {"name": "C", "species": [{"element": "C", "occu": 1}], "xyz": [3.16988, -1.27025, 5.031585], "properties": {}}, {"name": "C", "species": [{"element": "C", "occu": 1}], "xyz": [0.873087, 1.408126, -0.276089], "properties": {}}, {"name": "H", "species": [{"element": "H", "occu": 1}], "xyz": [2.742681, -3.277116, 1.325347], "properties": {}}, {"name": "H", "species": [{"element": "H", "occu": 1}], "xyz": [3.035576, -1.83269, 0.359494], "properties": {}}, {"name": "H", "species": [{"element": "H", "occu": 1}], "xyz": [4.179637, -1.668051, 2.515488], "properties": {}}, {"name": "H", "species": [{"element": "H", "occu": 1}], "xyz": [2.976632, -0.401005, 2.375496], "properties": {}}, {"name": "H", "species": [{"element": "H", "occu": 1}], "xyz": [0.44555, -2.518535, 1.856288], "properties": {}}, {"name": "H", "species": [{"element": "H", "occu": 1}], "xyz": [0.715416, -2.559097, 0.116972], "properties": {}}, {"name": "H", "species": [{"element": "H", "occu": 1}], "xyz": [1.415204, -1.693688, 3.84722], "properties": {}}, {"name": "H", "species": [{"element": "H", "occu": 1}], "xyz": [2.562047, -3.024211, 3.913887], "properties": {}}, {"name": "H", "species": [{"element": "H", "occu": 1}], "xyz": [0.729324, -0.051862, 1.886822], "properties": {}}, {"name": "H", "species": [{"element": "H", "occu": 1}], "xyz": [-0.552858, -0.554621, 0.763459], "properties": {}}, {"name": "H", "species": [{"element": "H", "occu": 1}], "xyz": [3.088864, -0.176531, 4.978698], "properties": {}}, {"name": "H", "species": [{"element": "H", "occu": 1}], "xyz": [2.719327, -1.593543, 5.977952], "properties": {}}, {"name": "H", "species": [{"element": "H", "occu": 1}], "xyz": [4.238177, -1.520558, 5.065973], "properties": {}}, {"name": "H", "species": [{"element": "H", "occu": 1}], "xyz": [1.455763, 1.799928, -1.114283], "properties": {}}, {"name": "H", "species": [{"element": "H", "occu": 1}], "xyz": [-0.200775, 1.525945, -0.497508], "properties": {}}, {"name": "H", "species": [{"element": "H", "occu": 1}], "xyz": [1.110096, 1.989704, 0.630476], "properties": {}}]}, "smiles": "O(CCCCCC)C", "inchi": "InChI=1S/C7H16O/c1-3-4-5-6-7-8-2/h3-7H2,1-2H3", "formula_alphabetical": "C7 H16 O1", "chemsys": "C-H-O", "energy": -351.609102553, "esp": {"1": ["O", -0.334811], "2": ["C", 0.035034], "3": ["C", -0.087332], "4": ["C", -0.172325], "5": ["C", 0.274407], "6": ["C", 0.18226], "7": ["C", -0.394507], "8": ["C", -0.085022], "9": ["H", 0.009641], "10": ["H", -0.003003], "11": ["H", 0.008539], "12": ["H", 0.04552], "13": ["H", 0.025112], "14": ["H", 0.066391], "15": ["H", -0.040572], "16": ["H", -0.040635], "17": ["H", 0.018349], "18": ["H", 0.021434], "19": ["H", 0.078777], "20": ["H", 0.086404], "21": ["H", 0.088297], "22": ["H", 0.099139], "23": ["H", 0.060218], "24": ["H", 0.058686]}, "dipole_moment": {"X": -0.799, "Y": 0.538, "Z": 0.63, "Tot": 1.1509}, "functional": "B3LYP", "basis": "6-31+G*", "phase": "gas", "tag": "lis", "state": "successful", "wall_time (s)": 8.847295787010808, "version": "0.0.1", "gauss_version": "ES64L-G16RevC.01", "last_updated": "2021-12-19T18:39:22.605761", "polarizability": 88.09, "solvent": "HME", "_id": null, "run_locs": ["/gpfs/scratch/ratwi/invited/ESP/HME/run.json", "/gpfs/scratch/ratwi/invited/ESP/HME/ESP/run.json"]}