{"molecule": {"@module": "pymatgen.core.structure", "@class": "Molecule", "charge": 0, "spin_multiplicity": 1, "sites": [{"name": "S", "species": [{"element": "S", "occu": 1}], "xyz": [1.090534, 0.020748, 0.040605], "properties": {}}, {"name": "O", "species": [{"element": "O", "occu": 1}], "xyz": [0.516473, -0.509529, -1.212509], "properties": {}}, {"name": "O", "species": [{"element": "O", "occu": 1}], "xyz": [2.551057, 0.1936, 0.177954], "properties": {}}, {"name": "C", "species": [{"element": "C", "occu": 1}], "xyz": [0.501869, -1.054619, 1.418515], "properties": {}}, {"name": "C", "species": [{"element": "C", "occu": 1}], "xyz": [0.979219, -2.480005, 1.121182], "properties": {}}, {"name": "C", "species": [{"element": "C", "occu": 1}], "xyz": [0.992061, -0.532654, 2.769718], "properties": {}}, {"name": "C", "species": [{"element": "C", "occu": 1}], "xyz": [0.314285, 1.631975, 0.341137], "properties": {}}, {"name": "H", "species": [{"element": "H", "occu": 1}], "xyz": [-0.591327, -1.001179, 1.344461], "properties": {}}, {"name": "H", "species": [{"element": "H", "occu": 1}], "xyz": [2.072928, -2.532957, 1.142462], "properties": {}}, {"name": "H", "species": [{"element": "H", "occu": 1}], "xyz": [0.586105, -3.154634, 1.890157], "properties": {}}, {"name": "H", "species": [{"element": "H", "occu": 1}], "xyz": [0.629983, -2.822489, 0.143341], "properties": {}}, {"name": "H", "species": [{"element": "H", "occu": 1}], "xyz": [0.597809, 0.46189, 3.003506], "properties": {}}, {"name": "H", "species": [{"element": "H", "occu": 1}], "xyz": [0.659038, -1.215028, 3.560271], "properties": {}}, {"name": "H", "species": [{"element": "H", "occu": 1}], "xyz": [2.085602, -0.487587, 2.788685], "properties": {}}, {"name": "H", "species": [{"element": "H", "occu": 1}], "xyz": [0.579061, 2.246089, -0.523302], "properties": {}}, {"name": "H", "species": [{"element": "H", "occu": 1}], "xyz": [-0.769602, 1.505594, 0.394638], "properties": {}}, {"name": "H", "species": [{"element": "H", "occu": 1}], "xyz": [0.716314, 2.072882, 1.254677], "properties": {}}]}, "smiles": "S(=O)(=O)(C(C)C)C", "inchi": "InChI=1S/C4H10O2S/c1-4(2)7(3,5)6/h4H,1-3H3", "formula_alphabetical": "C4 H10 O2 S1", "chemsys": "C-H-O-S", "energy": -707.046820393, "esp": {"1": ["S", 0.945087], "2": ["O", -0.55109], "3": ["O", -0.541315], "4": ["C", 0.230231], "5": ["C", -0.414435], "6": ["C", -0.369343], "7": ["C", -0.59499], "8": ["H", 0.021591], "9": ["H", 0.128426], "10": ["H", 0.120043], "11": ["H", 0.118696], "12": ["H", 0.083506], "13": ["H", 0.111616], "14": ["H", 0.115772], "15": ["H", 0.230039], "16": ["H", 0.176144], "17": ["H", 0.19002]}, "dipole_moment": {"X": -2.8091, "Y": 0.7971, "Z": 3.9563, "Tot": 4.9172}, "functional": "B3LYP", "basis": "6-31+G*", "phase": "gas", "tag": "lis", "state": "successful", "wall_time (s)": 7.192000634968281, "version": "0.0.1", "gauss_version": "ES64L-G16RevC.01", "last_updated": "2021-12-19T18:44:34.523223", "polarizability": 74.23, "solvent": "IPMS", "_id": null, "run_locs": ["/gpfs/scratch/ratwi/invited/ESP/IPMS/run.json", "/gpfs/scratch/ratwi/invited/ESP/IPMS/ESP/run.json"]}