{"molecule": {"@module": "pymatgen.core.structure", "@class": "Molecule", "charge": 0, "spin_multiplicity": 1, "sites": [{"name": "O", "species": [{"element": "O", "occu": 1}], "xyz": [0.946943, -0.059476, 0.000738], "properties": {}}, {"name": "O", "species": [{"element": "O", "occu": 1}], "xyz": [1.038119, 0.935555, 2.028669], "properties": {}}, {"name": "C", "species": [{"element": "C", "occu": 1}], "xyz": [-1.118479, 0.443834, 1.030268], "properties": {}}, {"name": "C", "species": [{"element": "C", "occu": 1}], "xyz": [0.388182, 0.483325, 1.10832], "properties": {}}, {"name": "C", "species": [{"element": "C", "occu": 1}], "xyz": [2.387617, -0.074163, -0.032782], "properties": {}}, {"name": "H", "species": [{"element": "H", "occu": 1}], "xyz": [-1.462275, 0.997409, 0.149814], "properties": {}}, {"name": "H", "species": [{"element": "H", "occu": 1}], "xyz": [-1.461062, -0.590817, 0.921236], "properties": {}}, {"name": "H", "species": [{"element": "H", "occu": 1}], "xyz": [-1.540918, 0.883208, 1.934977], "properties": {}}, {"name": "H", "species": [{"element": "H", "occu": 1}], "xyz": [2.650264, -0.540217, -0.983046], "properties": {}}, {"name": "H", "species": [{"element": "H", "occu": 1}], "xyz": [2.779964, 0.945441, 0.020912], "properties": {}}, {"name": "H", "species": [{"element": "H", "occu": 1}], "xyz": [2.781885, -0.65467, 0.806245], "properties": {}}]}, "smiles": "O(C(=O)C)C", "inchi": "InChI=1S/C3H6O2/c1-3(4)5-2/h1-2H3", "formula_alphabetical": "C3 H6 O2", "chemsys": "C-H-O", "energy": -268.401908375, "esp": {"1": ["O", -0.436472], "2": ["O", -0.594553], "3": ["C", -0.643035], "4": ["C", 0.918444], "5": ["C", -0.028421], "6": ["H", 0.175023], "7": ["H", 0.172941], "8": ["H", 0.172749], "9": ["H", 0.096406], "10": ["H", 0.08351], "11": ["H", 0.083408]}, "dipole_moment": {"X": -0.4205, "Y": -0.8395, "Z": -1.7127, "Tot": 1.9532}, "functional": "B3LYP", "basis": "6-31+G*", "phase": "gas", "tag": "lis", "state": "successful", "wall_time (s)": 3.584262257005321, "version": "0.0.1", "gauss_version": "ES64L-G16RevC.01", "last_updated": "2021-12-19T18:42:07.656081", "polarizability": 42.61, "solvent": "MA", "_id": null, "run_locs": ["/gpfs/scratch/ratwi/invited/ESP/MA/run.json", "/gpfs/scratch/ratwi/invited/ESP/MA/ESP/run.json"]}