{"molecule": {"@module": "pymatgen.core.structure", "@class": "Molecule", "charge": 0, "spin_multiplicity": 1, "sites": [{"name": "N", "species": [{"element": "N", "occu": 1}], "xyz": [0.741952, -0.030451, -0.006138], "properties": {}}, {"name": "N", "species": [{"element": "N", "occu": 1}], "xyz": [-1.375316, 0.67496, 0.01568], "properties": {}}, {"name": "C", "species": [{"element": "C", "occu": 1}], "xyz": [-0.052462, -1.160437, -0.010156], "properties": {}}, {"name": "C", "species": [{"element": "C", "occu": 1}], "xyz": [2.194691, 0.006915, -0.01655], "properties": {}}, {"name": "C", "species": [{"element": "C", "occu": 1}], "xyz": [-0.109098, 1.040953, 0.009524], "properties": {}}, {"name": "C", "species": [{"element": "C", "occu": 1}], "xyz": [-1.349965, -0.701778, 0.003446], "properties": {}}, {"name": "H", "species": [{"element": "H", "occu": 1}], "xyz": [2.599361, -0.494755, 0.868806], "properties": {}}, {"name": "H", "species": [{"element": "H", "occu": 1}], "xyz": [2.586165, -0.479079, -0.916465], "properties": {}}, {"name": "H", "species": [{"element": "H", "occu": 1}], "xyz": [2.522494, 1.049371, -0.009818], "properties": {}}, {"name": "H", "species": [{"element": "H", "occu": 1}], "xyz": [0.371757, -2.154355, -0.021993], "properties": {}}, {"name": "H", "species": [{"element": "H", "occu": 1}], "xyz": [0.25671, 2.059956, 0.01574], "properties": {}}, {"name": "H", "species": [{"element": "H", "occu": 1}], "xyz": [-2.262809, -1.28227, 0.005112], "properties": {}}]}, "smiles": "n1(ccnc1)C", "inchi": "InChI=1S/C4H6N2/c1-6-3-2-5-4-6/h2-4H,1H3", "formula_alphabetical": "C4 H6 N2", "chemsys": "C-H-N", "energy": -265.539386571, "esp": {"1": ["N", 0.348697], "2": ["N", -0.535722], "3": ["C", -0.49297], "4": ["C", -0.450646], "5": ["C", 0.036194], "6": ["C", 0.187549], "7": ["H", 0.16064], "8": ["H", 0.159882], "9": ["H", 0.1353], "10": ["H", 0.222883], "11": ["H", 0.132248], "12": ["H", 0.095943]}, "dipole_moment": {"X": 4.1427, "Y": -1.1298, "Z": -0.0405, "Tot": 4.2942}, "functional": "B3LYP", "basis": "6-31+G*", "phase": "gas", "tag": "lis", "state": "successful", "wall_time (s)": 4.839918376994319, "version": "0.0.1", "gauss_version": "ES64L-G16RevC.01", "last_updated": "2021-12-19T18:43:28.629301", "polarizability": 58.35, "solvent": "Me-Im", "_id": null, "run_locs": ["/gpfs/scratch/ratwi/invited/ESP/Me-Im/run.json", "/gpfs/scratch/ratwi/invited/ESP/Me-Im/ESP/run.json"]}