{"molecule": {"@module": "pymatgen.core.structure", "@class": "Molecule", "charge": 0, "spin_multiplicity": 1, "sites": [{"name": "O", "species": [{"element": "O", "occu": 1}], "xyz": [-0.795155, -0.816037, 0.534766], "properties": {}}, {"name": "C", "species": [{"element": "C", "occu": 1}], "xyz": [0.612117, -0.964687, 0.268964], "properties": {}}, {"name": "C", "species": [{"element": "C", "occu": 1}], "xyz": [1.167699, 0.463694, 0.301742], "properties": {}}, {"name": "C", "species": [{"element": "C", "occu": 1}], "xyz": [0.013613, 1.264119, -0.319662], "properties": {}}, {"name": "C", "species": [{"element": "C", "occu": 1}], "xyz": [-1.222311, 0.520408, 0.220585], "properties": {}}, {"name": "C", "species": [{"element": "C", "occu": 1}], "xyz": [1.206214, -1.929475, 1.282353], "properties": {}}, {"name": "H", "species": [{"element": "H", "occu": 1}], "xyz": [0.734235, -1.379222, -0.747455], "properties": {}}, {"name": "H", "species": [{"element": "H", "occu": 1}], "xyz": [1.337312, 0.771074, 1.342541], "properties": {}}, {"name": "H", "species": [{"element": "H", "occu": 1}], "xyz": [2.112146, 0.562634, -0.244061], "properties": {}}, {"name": "H", "species": [{"element": "H", "occu": 1}], "xyz": [0.018958, 2.324269, -0.045571], "properties": {}}, {"name": "H", "species": [{"element": "H", "occu": 1}], "xyz": [0.054789, 1.199411, -1.414042], "properties": {}}, {"name": "H", "species": [{"element": "H", "occu": 1}], "xyz": [-2.042287, 0.474082, -0.506932], "properties": {}}, {"name": "H", "species": [{"element": "H", "occu": 1}], "xyz": [-1.603888, 0.982782, 1.141299], "properties": {}}, {"name": "H", "species": [{"element": "H", "occu": 1}], "xyz": [0.700042, -2.899463, 1.232166], "properties": {}}, {"name": "H", "species": [{"element": "H", "occu": 1}], "xyz": [2.273699, -2.085229, 1.08285], "properties": {}}, {"name": "H", "species": [{"element": "H", "occu": 1}], "xyz": [1.090246, -1.53304, 2.297797], "properties": {}}]}, "smiles": "O1[C@@H](CCC1)C", "inchi": "InChI=1S/C5H10O/c1-5-3-2-4-6-5/h5H,2-4H2,1H3/t5-/m1/s1", "formula_alphabetical": "C5 H10 O1", "chemsys": "C-H-O", "energy": -271.780163471, "esp": {"1": ["O", -0.552937], "2": ["C", 0.524222], "3": ["C", 0.054876], "4": ["C", -0.170066], "5": ["C", 0.29959], "6": ["C", -0.548926], "7": ["H", -0.045637], "8": ["H", 0.011449], "9": ["H", -0.03008], "10": ["H", 0.031905], "11": ["H", 0.045168], "12": ["H", -0.010643], "13": ["H", -0.00315], "14": ["H", 0.15324], "15": ["H", 0.10612], "16": ["H", 0.134869]}, "dipole_moment": {"X": 1.1717, "Y": 1.3155, "Z": -0.569, "Tot": 1.8513}, "functional": "B3LYP", "basis": "6-31+G*", "phase": "gas", "tag": "lis", "state": "successful", "wall_time (s)": 5.7921666000038385, "version": "0.0.1", "gauss_version": "ES64L-G16RevC.01", "last_updated": "2021-12-19T18:39:13.893571", "polarizability": 61.06, "solvent": "MeTHF", "_id": null, "run_locs": ["/gpfs/scratch/ratwi/invited/ESP/MeTHF/run.json", "/gpfs/scratch/ratwi/invited/ESP/MeTHF/ESP/run.json"]}