{"molecule": {"@module": "pymatgen.core.structure", "@class": "Molecule", "charge": 0, "spin_multiplicity": 1, "sites": [{"name": "O", "species": [{"element": "O", "occu": 1}], "xyz": [1.115524, -0.053215, -0.04953], "properties": {}}, {"name": "C", "species": [{"element": "C", "occu": 1}], "xyz": [0.555252, -1.307427, -0.499095], "properties": {}}, {"name": "C", "species": [{"element": "C", "occu": 1}], "xyz": [1.047208, -1.654765, -1.913758], "properties": {}}, {"name": "C", "species": [{"element": "C", "occu": 1}], "xyz": [1.098567, -2.320089, 0.513575], "properties": {}}, {"name": "C", "species": [{"element": "C", "occu": 1}], "xyz": [-0.980991, -1.275489, -0.446394], "properties": {}}, {"name": "C", "species": [{"element": "C", "occu": 1}], "xyz": [0.799624, 1.118644, -0.780595], "properties": {}}, {"name": "H", "species": [{"element": "H", "occu": 1}], "xyz": [2.141019, -1.604032, -1.957124], "properties": {}}, {"name": "H", "species": [{"element": "H", "occu": 1}], "xyz": [0.736211, -2.670951, -2.18242], "properties": {}}, {"name": "H", "species": [{"element": "H", "occu": 1}], "xyz": [0.637219, -0.976145, -2.670067], "properties": {}}, {"name": "H", "species": [{"element": "H", "occu": 1}], "xyz": [0.771696, -2.054853, 1.524827], "properties": {}}, {"name": "H", "species": [{"element": "H", "occu": 1}], "xyz": [0.74341, -3.33078, 0.282398], "properties": {}}, {"name": "H", "species": [{"element": "H", "occu": 1}], "xyz": [2.193805, -2.319531, 0.497036], "properties": {}}, {"name": "H", "species": [{"element": "H", "occu": 1}], "xyz": [-1.319129, -0.955117, 0.545541], "properties": {}}, {"name": "H", "species": [{"element": "H", "occu": 1}], "xyz": [-1.404336, -0.596021, -1.194547], "properties": {}}, {"name": "H", "species": [{"element": "H", "occu": 1}], "xyz": [-1.385964, -2.274546, -0.644857], "properties": {}}, {"name": "H", "species": [{"element": "H", "occu": 1}], "xyz": [1.322792, 1.936767, -0.277587], "properties": {}}, {"name": "H", "species": [{"element": "H", "occu": 1}], "xyz": [1.148274, 1.071207, -1.822568], "properties": {}}, {"name": "H", "species": [{"element": "H", "occu": 1}], "xyz": [-0.277751, 1.339503, -0.775874], "properties": {}}]}, "smiles": "O(C(C)(C)C)C", "inchi": "InChI=1S/C5H12O/c1-5(2,3)6-4/h1-4H3", "formula_alphabetical": "C5 H12 O1", "chemsys": "C-H-O", "energy": -272.985633562, "esp": {"1": ["O", -0.502314], "2": ["C", 0.792621], "3": ["C", -0.392443], "4": ["C", -0.583833], "5": ["C", -0.435996], "6": ["C", 0.000576], "7": ["H", 0.100814], "8": ["H", 0.073135], "9": ["H", 0.086694], "10": ["H", 0.131067], "11": ["H", 0.139033], "12": ["H", 0.134191], "13": ["H", 0.114006], "14": ["H", 0.096222], "15": ["H", 0.084672], "16": ["H", 0.088156], "17": ["H", 0.035594], "18": ["H", 0.037806]}, "dipole_moment": {"X": -0.8249, "Y": -0.1833, "Z": -1.084, "Tot": 1.3745}, "functional": "B3LYP", "basis": "6-31+G*", "phase": "gas", "tag": "lis", "state": "successful", "wall_time (s)": 5.959961477012257, "version": "0.0.1", "gauss_version": "ES64L-G16RevC.01", "last_updated": "2021-12-19T18:39:17.567265", "polarizability": 64.93, "solvent": "MtBE", "_id": null, "run_locs": ["/gpfs/scratch/ratwi/invited/ESP/MtBE/run.json", "/gpfs/scratch/ratwi/invited/ESP/MtBE/ESP/run.json"]}