{"molecule": {"@module": "pymatgen.core.structure", "@class": "Molecule", "charge": 0, "spin_multiplicity": 1, "sites": [{"name": "O", "species": [{"element": "O", "occu": 1}], "xyz": [1.236949, -0.464228, -0.173788], "properties": {}}, {"name": "N", "species": [{"element": "N", "occu": 1}], "xyz": [3.227005, -0.589424, 0.904069], "properties": {}}, {"name": "C", "species": [{"element": "C", "occu": 1}], "xyz": [2.409747, -0.108911, -0.078099], "properties": {}}, {"name": "C", "species": [{"element": "C", "occu": 1}], "xyz": [2.741852, -1.547904, 1.887819], "properties": {}}, {"name": "C", "species": [{"element": "C", "occu": 1}], "xyz": [3.028136, 0.887824, -1.046248], "properties": {}}, {"name": "H", "species": [{"element": "H", "occu": 1}], "xyz": [4.184478, -0.273829, 0.954111], "properties": {}}, {"name": "H", "species": [{"element": "H", "occu": 1}], "xyz": [2.386617, -2.458967, 1.394734], "properties": {}}, {"name": "H", "species": [{"element": "H", "occu": 1}], "xyz": [3.558869, -1.798734, 2.568794], "properties": {}}, {"name": "H", "species": [{"element": "H", "occu": 1}], "xyz": [1.9084, -1.125847, 2.459534], "properties": {}}, {"name": "H", "species": [{"element": "H", "occu": 1}], "xyz": [2.940151, 0.488896, -2.061837], "properties": {}}, {"name": "H", "species": [{"element": "H", "occu": 1}], "xyz": [2.451056, 1.81719, -1.006806], "properties": {}}, {"name": "H", "species": [{"element": "H", "occu": 1}], "xyz": [4.08066, 1.113245, -0.842213], "properties": {}}]}, "smiles": "O=C(NC)C", "inchi": "InChI=1S/C3H7NO/c1-3(5)4-2/h1-2H3,(H,4,5)", "formula_alphabetical": "C3 H7 N1 O1", "chemsys": "C-H-N-O", "energy": -248.537322064, "esp": {"1": ["O", -0.582859], "2": ["N", -0.449399], "3": ["C", 0.762298], "4": ["C", -0.257364], "5": ["C", -0.753861], "6": ["H", 0.307864], "7": ["H", 0.125873], "8": ["H", 0.12481], "9": ["H", 0.127369], "10": ["H", 0.211341], "11": ["H", 0.212987], "12": ["H", 0.17094]}, "dipole_moment": {"X": 3.8563, "Y": 0.4863, "Z": 1.179, "Tot": 4.0617}, "functional": "B3LYP", "basis": "6-31+G*", "phase": "gas", "tag": "lis", "state": "successful", "wall_time (s)": 3.828366997971898, "version": "0.0.1", "gauss_version": "ES64L-G16RevC.01", "last_updated": "2021-12-19T18:44:01.261086", "polarizability": 47.43, "solvent": "NMA", "_id": null, "run_locs": ["/gpfs/scratch/ratwi/invited/ESP/NMA/run.json", "/gpfs/scratch/ratwi/invited/ESP/NMA/ESP/run.json"]}