{"molecule": {"@module": "pymatgen.core.structure", "@class": "Molecule", "charge": 0, "spin_multiplicity": 1, "sites": [{"name": "F", "species": [{"element": "F", "occu": 1}], "xyz": [2.582619, 1.293808, 0.375292], "properties": {}}, {"name": "F", "species": [{"element": "F", "occu": 1}], "xyz": [0.840338, -0.022652, 0.082738], "properties": {}}, {"name": "F", "species": [{"element": "F", "occu": 1}], "xyz": [1.695309, 0.918211, -2.212952], "properties": {}}, {"name": "F", "species": [{"element": "F", "occu": 1}], "xyz": [3.797445, 0.416075, -1.784985], "properties": {}}, {"name": "F", "species": [{"element": "F", "occu": 1}], "xyz": [2.299067, -2.211, 0.556379], "properties": {}}, {"name": "F", "species": [{"element": "F", "occu": 1}], "xyz": [4.186841, -1.075322, 0.465132], "properties": {}}, {"name": "F", "species": [{"element": "F", "occu": 1}], "xyz": [1.505731, -0.632637, 2.719937], "properties": {}}, {"name": "F", "species": [{"element": "F", "occu": 1}], "xyz": [3.40959, -1.725223, 2.979876], "properties": {}}, {"name": "F", "species": [{"element": "F", "occu": 1}], "xyz": [1.003767, -3.097915, -3.975604], "properties": {}}, {"name": "F", "species": [{"element": "F", "occu": 1}], "xyz": [1.505393, -3.996121, -2.047521], "properties": {}}, {"name": "F", "species": [{"element": "F", "occu": 1}], "xyz": [-1.519145, -2.421305, -3.010241], "properties": {}}, {"name": "F", "species": [{"element": "F", "occu": 1}], "xyz": [-1.03479, -4.569089, -2.819012], "properties": {}}, {"name": "O", "species": [{"element": "O", "occu": 1}], "xyz": [1.029222, -1.794789, -2.137457], "properties": {}}, {"name": "C", "species": [{"element": "C", "occu": 1}], "xyz": [2.179402, 0.070984, -0.082401], "properties": {}}, {"name": "C", "species": [{"element": "C", "occu": 1}], "xyz": [2.505962, 0.004677, -1.610254], "properties": {}}, {"name": "C", "species": [{"element": "C", "occu": 1}], "xyz": [2.867255, -1.003504, 0.807948], "properties": {}}, {"name": "C", "species": [{"element": "C", "occu": 1}], "xyz": [2.376784, -1.345648, -2.302766], "properties": {}}, {"name": "C", "species": [{"element": "C", "occu": 1}], "xyz": [2.805151, -0.698996, 2.323092], "properties": {}}, {"name": "C", "species": [{"element": "C", "occu": 1}], "xyz": [0.740809, -3.021137, -2.638094], "properties": {}}, {"name": "C", "species": [{"element": "C", "occu": 1}], "xyz": [-0.743759, -3.324855, -2.352675], "properties": {}}, {"name": "H", "species": [{"element": "H", "occu": 1}], "xyz": [2.607781, -1.187473, -3.360373], "properties": {}}, {"name": "H", "species": [{"element": "H", "occu": 1}], "xyz": [3.083958, -2.054818, -1.865651], "properties": {}}, {"name": "H", "species": [{"element": "H", "occu": 1}], "xyz": [3.312271, 0.237057, 2.568036], "properties": {}}, {"name": "H", "species": [{"element": "H", "occu": 1}], "xyz": [-0.954212, -3.276568, -1.280735], "properties": {}}]}, "smiles": "FC(F)(C(F)(F)COC(F)(F)C(F)F)C(F)(F)C(F)F", "inchi": "InChI=1S/C7H4F12O/c8-2(9)5(14,15)7(18,19)4(12,13)1-20-6(16,17)3(10)11/h2-3H,1H2", "formula_alphabetical": "C7 F12 H4 O1", "chemsys": "C-F-H-O", "energy": -1542.52598877, "esp": {"1": ["F", -0.125859], "2": ["F", -0.120529], "3": ["F", -0.152675], "4": ["F", -0.206082], "5": ["F", -0.109835], "6": ["F", -0.15649], "7": ["F", -0.188267], "8": ["F", -0.191399], "9": ["F", -0.170612], "10": ["F", -0.209532], "11": ["F", -0.198616], "12": ["F", -0.209098], "13": ["O", -0.358287], "14": ["C", 0.146017], "15": ["C", 0.401606], "16": ["C", 0.207545], "17": ["C", -0.012695], "18": ["C", 0.352558], "19": ["C", 0.454466], "20": ["C", 0.351607], "21": ["H", 0.14147], "22": ["H", 0.133983], "23": ["H", 0.113706], "24": ["H", 0.107019]}, "dipole_moment": {"X": 1.7052, "Y": 0.8924, "Z": 1.2374, "Tot": 2.2881}, "functional": "B3LYP", "basis": "6-31+G*", "phase": "gas", "tag": "lis", "state": "successful", "wall_time (s)": 24.758217116992455, "version": "0.0.1", "gauss_version": "ES64L-G16RevC.01", "last_updated": "2021-12-19T18:46:32.182544", "polarizability": 95.57, "solvent": "OFE", "_id": null, "run_locs": ["/gpfs/scratch/ratwi/invited/ESP/OFE/run.json", "/gpfs/scratch/ratwi/invited/ESP/OFE/ESP/run.json"]}