{"molecule": {"@module": "pymatgen.core.structure", "@class": "Molecule", "charge": 0, "spin_multiplicity": 1, "sites": [{"name": "O", "species": [{"element": "O", "occu": 1}], "xyz": [-0.753726, -0.892165, 1.098497], "properties": {}}, {"name": "O", "species": [{"element": "O", "occu": 1}], "xyz": [0.572828, 1.514689, 0.624884], "properties": {}}, {"name": "C", "species": [{"element": "C", "occu": 1}], "xyz": [2.736984, -2.404098, 0.434042], "properties": {}}, {"name": "C", "species": [{"element": "C", "occu": 1}], "xyz": [1.204287, -2.243898, 0.514214], "properties": {}}, {"name": "C", "species": [{"element": "C", "occu": 1}], "xyz": [0.686795, -0.891018, 1.009983], "properties": {}}, {"name": "C", "species": [{"element": "C", "occu": 1}], "xyz": [3.420688, -2.14035, 1.784846], "properties": {}}, {"name": "C", "species": [{"element": "C", "occu": 1}], "xyz": [3.086419, -3.807826, -0.084432], "properties": {}}, {"name": "C", "species": [{"element": "C", "occu": 1}], "xyz": [1.124532, 0.295742, 0.148762], "properties": {}}, {"name": "H", "species": [{"element": "H", "occu": 1}], "xyz": [3.124917, -1.676222, -0.293682], "properties": {}}, {"name": "H", "species": [{"element": "H", "occu": 1}], "xyz": [0.794785, -3.018334, 1.177852], "properties": {}}, {"name": "H", "species": [{"element": "H", "occu": 1}], "xyz": [0.779109, -2.431728, -0.485477], "properties": {}}, {"name": "H", "species": [{"element": "H", "occu": 1}], "xyz": [1.006352, -0.708555, 2.040828], "properties": {}}, {"name": "H", "species": [{"element": "H", "occu": 1}], "xyz": [3.019042, -2.807734, 2.559402], "properties": {}}, {"name": "H", "species": [{"element": "H", "occu": 1}], "xyz": [4.500097, -2.32105, 1.71532], "properties": {}}, {"name": "H", "species": [{"element": "H", "occu": 1}], "xyz": [3.281533, -1.108284, 2.126212], "properties": {}}, {"name": "H", "species": [{"element": "H", "occu": 1}], "xyz": [2.621841, -4.003166, -1.059093], "properties": {}}, {"name": "H", "species": [{"element": "H", "occu": 1}], "xyz": [4.170636, -3.927826, -0.197989], "properties": {}}, {"name": "H", "species": [{"element": "H", "occu": 1}], "xyz": [2.735965, -4.578896, 0.614867], "properties": {}}, {"name": "H", "species": [{"element": "H", "occu": 1}], "xyz": [2.212169, 0.41532, 0.1728], "properties": {}}, {"name": "H", "species": [{"element": "H", "occu": 1}], "xyz": [0.826748, 0.111989, -0.900202], "properties": {}}, {"name": "H", "species": [{"element": "H", "occu": 1}], "xyz": [-1.114105, -1.244112, 0.267252], "properties": {}}, {"name": "H", "species": [{"element": "H", "occu": 1}], "xyz": [-0.353276, 1.32812, 0.859345], "properties": {}}]}, "smiles": "O[C@@H](CC(C)C)CO", "inchi": "InChI=1S/C6H14O2/c1-5(2)3-6(8)4-7/h5-8H,3-4H2,1-2H3/t6-/m0/s1", "formula_alphabetical": "C6 H14 O2", "chemsys": "C-H-O", "energy": -387.521620608, "esp": {"1": ["O", -0.700707], "2": ["O", -0.690813], "3": ["C", 0.578586], "4": ["C", -0.48081], "5": ["C", 0.323918], "6": ["C", -0.352046], "7": ["C", -0.397882], "8": ["C", 0.196011], "9": ["H", -0.12095], "10": ["H", 0.122695], "11": ["H", 0.083497], "12": ["H", 0.074514], "13": ["H", 0.077778], "14": ["H", 0.076778], "15": ["H", 0.046229], "16": ["H", 0.084162], "17": ["H", 0.08556], "18": ["H", 0.078875], "19": ["H", 0.085494], "20": ["H", -0.007764], "21": ["H", 0.417925], "22": ["H", 0.418949]}, "dipole_moment": {"X": 0.4919, "Y": -2.532, "Z": -1.3494, "Tot": 2.911}, "functional": "B3LYP", "basis": "6-31+G*", "phase": "gas", "tag": "lis", "state": "successful", "wall_time (s)": 8.696851829008665, "version": "0.0.1", "gauss_version": "ES64L-G16RevC.01", "last_updated": "2021-12-19T18:41:17.310854", "polarizability": 80.98, "solvent": "PEGDME", "_id": null, "run_locs": ["/gpfs/scratch/ratwi/invited/ESP/PEGDME/run.json", "/gpfs/scratch/ratwi/invited/ESP/PEGDME/ESP/run.json"]}