{"molecule": {"@module": "pymatgen.core.structure", "@class": "Molecule", "charge": 0, "spin_multiplicity": 1, "sites": [{"name": "N", "species": [{"element": "N", "occu": 1}], "xyz": [1.027528, 0.081618, -0.0107], "properties": {}}, {"name": "C", "species": [{"element": "C", "occu": 1}], "xyz": [3.656413, 0.047747, 0.01289], "properties": {}}, {"name": "C", "species": [{"element": "C", "occu": 1}], "xyz": [4.210548, -1.130887, 0.836339], "properties": {}}, {"name": "C", "species": [{"element": "C", "occu": 1}], "xyz": [2.189036, 0.076015, -0.006823], "properties": {}}, {"name": "H", "species": [{"element": "H", "occu": 1}], "xyz": [4.011469, -0.006762, -1.023685], "properties": {}}, {"name": "H", "species": [{"element": "H", "occu": 1}], "xyz": [4.0115, 1.002312, 0.420621], "properties": {}}, {"name": "H", "species": [{"element": "H", "occu": 1}], "xyz": [3.877388, -2.087944, 0.42294], "properties": {}}, {"name": "H", "species": [{"element": "H", "occu": 1}], "xyz": [5.305209, -1.108387, 0.820641], "properties": {}}, {"name": "H", "species": [{"element": "H", "occu": 1}], "xyz": [3.877359, -1.071953, 1.877187], "properties": {}}]}, "smiles": "N#CCC", "inchi": "InChI=1S/C3H5N/c1-2-3-4/h2H2,1H3", "formula_alphabetical": "C3 H5 N1", "chemsys": "C-H-N", "energy": -172.076466663, "esp": {"1": ["N", -0.463533], "2": ["C", 0.094778], "3": ["C", -0.150627], "4": ["C", 0.27666], "5": ["H", 0.038581], "6": ["H", 0.037194], "7": ["H", 0.059663], "8": ["H", 0.045256], "9": ["H", 0.062028]}, "dipole_moment": {"X": 4.161, "Y": -0.2313, "Z": 0.1615, "Tot": 4.1706}, "functional": "B3LYP", "basis": "6-31+G*", "phase": "gas", "tag": "lis", "state": "successful", "wall_time (s)": 3.103362444002414, "version": "0.0.1", "gauss_version": "ES64L-G16RevC.01", "last_updated": "2021-12-19T18:39:15.018147", "polarizability": 38.34, "solvent": "PrN", "_id": null, "run_locs": ["/gpfs/scratch/ratwi/invited/ESP/PrN/run.json", "/gpfs/scratch/ratwi/invited/ESP/PrN/ESP/run.json"]}