{"molecule": {"@module": "pymatgen.core.structure", "@class": "Molecule", "charge": 0, "spin_multiplicity": 1, "sites": [{"name": "S", "species": [{"element": "S", "occu": 1}], "xyz": [0.606529, 0.073459, 0.063654], "properties": {}}, {"name": "O", "species": [{"element": "O", "occu": 1}], "xyz": [1.361341, -0.629961, -0.992379], "properties": {}}, {"name": "O", "species": [{"element": "O", "occu": 1}], "xyz": [1.31387, 0.81106, 1.129192], "properties": {}}, {"name": "C", "species": [{"element": "C", "occu": 1}], "xyz": [-0.655456, 1.171448, -0.715065], "properties": {}}, {"name": "C", "species": [{"element": "C", "occu": 1}], "xyz": [-0.612838, -1.082453, 0.826387], "properties": {}}, {"name": "C", "species": [{"element": "C", "occu": 1}], "xyz": [-1.981842, 0.779616, -0.053974], "properties": {}}, {"name": "C", "species": [{"element": "C", "occu": 1}], "xyz": [-1.947755, -0.751851, 0.149148], "properties": {}}, {"name": "H", "species": [{"element": "H", "occu": 1}], "xyz": [-0.342378, 2.203113, -0.541547], "properties": {}}, {"name": "H", "species": [{"element": "H", "occu": 1}], "xyz": [-0.639279, 0.945091, -1.784873], "properties": {}}, {"name": "H", "species": [{"element": "H", "occu": 1}], "xyz": [-0.250287, -2.098378, 0.656361], "properties": {}}, {"name": "H", "species": [{"element": "H", "occu": 1}], "xyz": [-0.620234, -0.856617, 1.896398], "properties": {}}, {"name": "H", "species": [{"element": "H", "occu": 1}], "xyz": [-2.078212, 1.281264, 0.916903], "properties": {}}, {"name": "H", "species": [{"element": "H", "occu": 1}], "xyz": [-2.832119, 1.086585, -0.671762], "properties": {}}, {"name": "H", "species": [{"element": "H", "occu": 1}], "xyz": [-2.790436, -1.097877, 0.756615], "properties": {}}, {"name": "H", "species": [{"element": "H", "occu": 1}], "xyz": [-2.009113, -1.257057, -0.822728], "properties": {}}]}, "smiles": "S1(=O)(=O)CCCC1", "inchi": "InChI=1S/C4H8O2S/c5-7(6)3-1-2-4-7/h1-4H2", "formula_alphabetical": "C4 H8 O2 S1", "chemsys": "C-H-O-S", "energy": -705.835231802, "esp": {"1": ["S", 0.950209], "2": ["O", -0.552665], "3": ["O", -0.552583], "4": ["C", -0.221119], "5": ["C", -0.212302], "6": ["C", -0.003147], "7": ["C", -0.004403], "8": ["H", 0.113955], "9": ["H", 0.111323], "10": ["H", 0.111489], "11": ["H", 0.108538], "12": ["H", 0.039189], "13": ["H", 0.036702], "14": ["H", 0.036136], "15": ["H", 0.038679]}, "dipole_moment": {"X": -5.6744, "Y": -0.1324, "Z": -0.0365, "Tot": 5.676}, "functional": "B3LYP", "basis": "6-31+G*", "phase": "gas", "tag": "lis", "state": "successful", "wall_time (s)": 6.354736043984303, "version": "0.0.1", "gauss_version": "ES64L-G16RevC.01", "last_updated": "2021-12-19T18:40:22.154209", "polarizability": 69.41, "solvent": "SL", "_id": null, "run_locs": ["/gpfs/scratch/ratwi/invited/ESP/SL/run.json", "/gpfs/scratch/ratwi/invited/ESP/SL/ESP/run.json"]}