{"molecule": {"@module": "pymatgen.core.structure", "@class": "Molecule", "charge": 0, "spin_multiplicity": 1, "sites": [{"name": "O", "species": [{"element": "O", "occu": 1}], "xyz": [1.226437, -0.360051, 0.817372], "properties": {}}, {"name": "O", "species": [{"element": "O", "occu": 1}], "xyz": [-1.386133, -1.608617, 1.253786], "properties": {}}, {"name": "O", "species": [{"element": "O", "occu": 1}], "xyz": [3.63318, 2.150204, 1.73078], "properties": {}}, {"name": "O", "species": [{"element": "O", "occu": 1}], "xyz": [-3.434623, -3.691448, 1.429525], "properties": {}}, {"name": "O", "species": [{"element": "O", "occu": 1}], "xyz": [3.56004, 5.796739, 1.768368], "properties": {}}, {"name": "C", "species": [{"element": "C", "occu": 1}], "xyz": [0.991524, -1.72839, 1.104793], "properties": {}}, {"name": "C", "species": [{"element": "C", "occu": 1}], "xyz": [2.373115, 0.162658, 1.464692], "properties": {}}, {"name": "C", "species": [{"element": "C", "occu": 1}], "xyz": [-0.325466, -2.149339, 0.484493], "properties": {}}, {"name": "C", "species": [{"element": "C", "occu": 1}], "xyz": [2.488107, 1.62718, 1.070357], "properties": {}}, {"name": "C", "species": [{"element": "C", "occu": 1}], "xyz": [-2.646629, -1.575831, 0.60983], "properties": {}}, {"name": "C", "species": [{"element": "C", "occu": 1}], "xyz": [3.963651, 3.489137, 1.388956], "properties": {}}, {"name": "C", "species": [{"element": "C", "occu": 1}], "xyz": [-3.22912, -2.937983, 0.250348], "properties": {}}, {"name": "C", "species": [{"element": "C", "occu": 1}], "xyz": [3.105076, 4.506753, 2.140575], "properties": {}}, {"name": "C", "species": [{"element": "C", "occu": 1}], "xyz": [-3.963806, -4.979897, 1.180022], "properties": {}}, {"name": "C", "species": [{"element": "C", "occu": 1}], "xyz": [2.850346, 6.84442, 2.40421], "properties": {}}, {"name": "H", "species": [{"element": "H", "occu": 1}], "xyz": [1.806394, -2.348308, 0.691979], "properties": {}}, {"name": "H", "species": [{"element": "H", "occu": 1}], "xyz": [0.948473, -1.894765, 2.192998], "properties": {}}, {"name": "H", "species": [{"element": "H", "occu": 1}], "xyz": [2.27902, 0.078159, 2.559102], "properties": {}}, {"name": "H", "species": [{"element": "H", "occu": 1}], "xyz": [3.283215, -0.379004, 1.158409], "properties": {}}, {"name": "H", "species": [{"element": "H", "occu": 1}], "xyz": [-0.369191, -1.785, -0.555304], "properties": {}}, {"name": "H", "species": [{"element": "H", "occu": 1}], "xyz": [-0.377017, -3.249765, 0.469347], "properties": {}}, {"name": "H", "species": [{"element": "H", "occu": 1}], "xyz": [2.597852, 1.713044, -0.022318], "properties": {}}, {"name": "H", "species": [{"element": "H", "occu": 1}], "xyz": [1.568931, 2.154636, 1.363428], "properties": {}}, {"name": "H", "species": [{"element": "H", "occu": 1}], "xyz": [-3.31731, -1.071869, 1.312292], "properties": {}}, {"name": "H", "species": [{"element": "H", "occu": 1}], "xyz": [-2.588132, -0.972265, -0.313658], "properties": {}}, {"name": "H", "species": [{"element": "H", "occu": 1}], "xyz": [5.012613, 3.630095, 1.666944], "properties": {}}, {"name": "H", "species": [{"element": "H", "occu": 1}], "xyz": [3.871927, 3.653616, 0.304155], "properties": {}}, {"name": "H", "species": [{"element": "H", "occu": 1}], "xyz": [-4.185182, -2.77496, -0.280019], "properties": {}}, {"name": "H", "species": [{"element": "H", "occu": 1}], "xyz": [-2.562844, -3.48288, -0.440899], "properties": {}}, {"name": "H", "species": [{"element": "H", "occu": 1}], "xyz": [2.038753, 4.388972, 1.885485], "properties": {}}, {"name": "H", "species": [{"element": "H", "occu": 1}], "xyz": [3.212417, 4.348445, 3.226406], "properties": {}}, {"name": "H", "species": [{"element": "H", "occu": 1}], "xyz": [-4.947539, -4.924371, 0.684909], "properties": {}}, {"name": "H", "species": [{"element": "H", "occu": 1}], "xyz": [-3.286002, -5.578758, 0.549156], "properties": {}}, {"name": "H", "species": [{"element": "H", "occu": 1}], "xyz": [-4.07833, -5.472415, 2.149153], "properties": {}}, {"name": "H", "species": [{"element": "H", "occu": 1}], "xyz": [2.95239, 6.791216, 3.500223], "properties": {}}, {"name": "H", "species": [{"element": "H", "occu": 1}], "xyz": [3.2804, 7.784601, 2.048994], "properties": {}}, {"name": "H", "species": [{"element": "H", "occu": 1}], "xyz": [1.778756, 6.817311, 2.147511], "properties": {}}]}, "smiles": "O(CCOCCOC)CCOCCOC", "inchi": "InChI=1S/C10H22O5/c1-11-3-5-13-7-9-15-10-8-14-6-4-12-2/h3-10H2,1-2H3", "formula_alphabetical": "C10 H22 O5", "chemsys": "C-H-O", "energy": -770.377557383, "esp": {"1": ["O", -0.429206], "2": ["O", -0.343699], "3": ["O", -0.561725], "4": ["O", -0.330705], "5": ["O", -0.468455], "6": ["C", 0.162235], "7": ["C", 0.138992], "8": ["C", 0.076919], "9": ["C", 0.257301], "10": ["C", -0.06403], "11": ["C", 0.266412], "12": ["C", 0.113136], "13": ["C", 0.150392], "14": ["C", -0.013952], "15": ["C", 0.106867], "16": ["H", 0.001203], "17": ["H", 0.037886], "18": ["H", 0.04568], "19": ["H", 0.040058], "20": ["H", 0.057121], "21": ["H", 0.06648], "22": ["H", 0.023148], "23": ["H", -0.003789], "24": ["H", 0.11965], "25": ["H", 0.075568], "26": ["H", 0.044223], "27": ["H", -0.002833], "28": ["H", 0.04213], "29": ["H", 0.024348], "30": ["H", 0.045107], "31": ["H", 0.04454], "32": ["H", 0.044571], "33": ["H", 0.053624], "34": ["H", 0.078528], "35": ["H", 0.019337], "36": ["H", 0.06595], "37": ["H", 0.016985]}, "dipole_moment": {"X": -1.627, "Y": -1.1059, "Z": -1.4965, "Tot": 2.4718}, "functional": "B3LYP", "basis": "6-31+G*", "phase": "gas", "tag": "lis", "state": "successful", "wall_time (s)": 17.828517473011743, "version": "0.0.1", "gauss_version": "ES64L-G16RevC.01", "last_updated": "2021-12-19T18:46:08.270543", "polarizability": 144.3, "solvent": "TEGDME", "_id": null, "run_locs": ["/gpfs/scratch/ratwi/invited/ESP/TEGDME/run.json", "/gpfs/scratch/ratwi/invited/ESP/TEGDME/ESP/run.json"]}