{"molecule": {"@module": "pymatgen.core.structure", "@class": "Molecule", "charge": 0, "spin_multiplicity": 1, "sites": [{"name": "P", "species": [{"element": "P", "occu": 1}], "xyz": [0.415401, -0.000795, 0.153149], "properties": {}}, {"name": "O", "species": [{"element": "O", "occu": 1}], "xyz": [0.361249, 1.413275, 0.912244], "properties": {}}, {"name": "O", "species": [{"element": "O", "occu": 1}], "xyz": [0.727081, 0.433408, -1.361164], "properties": {}}, {"name": "O", "species": [{"element": "O", "occu": 1}], "xyz": [-1.135356, -0.411635, 0.080483], "properties": {}}, {"name": "O", "species": [{"element": "O", "occu": 1}], "xyz": [1.329118, -1.01662, 0.738124], "properties": {}}, {"name": "C", "species": [{"element": "C", "occu": 1}], "xyz": [1.60169, 2.043462, 1.332356], "properties": {}}, {"name": "C", "species": [{"element": "C", "occu": 1}], "xyz": [1.025731, -0.591256, -2.347677], "properties": {}}, {"name": "C", "species": [{"element": "C", "occu": 1}], "xyz": [-1.761155, -1.034548, 1.234869], "properties": {}}, {"name": "C", "species": [{"element": "C", "occu": 1}], "xyz": [1.24287, 3.190624, 2.257874], "properties": {}}, {"name": "C", "species": [{"element": "C", "occu": 1}], "xyz": [1.544862, 0.106361, -3.590711], "properties": {}}, {"name": "C", "species": [{"element": "C", "occu": 1}], "xyz": [-3.111805, -1.565811, 0.793475], "properties": {}}, {"name": "H", "species": [{"element": "H", "occu": 1}], "xyz": [2.22558, 1.295854, 1.833941], "properties": {}}, {"name": "H", "species": [{"element": "H", "occu": 1}], "xyz": [2.125813, 2.400636, 0.437554], "properties": {}}, {"name": "H", "species": [{"element": "H", "occu": 1}], "xyz": [1.76676, -1.2802, -1.928168], "properties": {}}, {"name": "H", "species": [{"element": "H", "occu": 1}], "xyz": [0.103225, -1.146477, -2.556627], "properties": {}}, {"name": "H", "species": [{"element": "H", "occu": 1}], "xyz": [-1.109143, -1.834753, 1.601359], "properties": {}}, {"name": "H", "species": [{"element": "H", "occu": 1}], "xyz": [-1.867069, -0.275545, 2.019497], "properties": {}}, {"name": "H", "species": [{"element": "H", "occu": 1}], "xyz": [0.714744, 2.820815, 3.143243], "properties": {}}, {"name": "H", "species": [{"element": "H", "occu": 1}], "xyz": [2.155041, 3.703792, 2.584963], "properties": {}}, {"name": "H", "species": [{"element": "H", "occu": 1}], "xyz": [0.599715, 3.914077, 1.745653], "properties": {}}, {"name": "H", "species": [{"element": "H", "occu": 1}], "xyz": [2.461705, 0.661913, -3.366403], "properties": {}}, {"name": "H", "species": [{"element": "H", "occu": 1}], "xyz": [1.767461, -0.634829, -4.367543], "properties": {}}, {"name": "H", "species": [{"element": "H", "occu": 1}], "xyz": [0.799336, 0.807598, -3.980394], "properties": {}}, {"name": "H", "species": [{"element": "H", "occu": 1}], "xyz": [-2.991704, -2.317272, 0.005799], "properties": {}}, {"name": "H", "species": [{"element": "H", "occu": 1}], "xyz": [-3.624477, -2.030905, 1.643909], "properties": {}}, {"name": "H", "species": [{"element": "H", "occu": 1}], "xyz": [-3.739202, -0.754948, 0.408405], "properties": {}}]}, "smiles": "P(=O)(OCC)(OCC)OCC", "inchi": "InChI=1S/C6H15O4P/c1-4-8-11(7,9-5-2)10-6-3/h4-6H2,1-3H3", "formula_alphabetical": "C6 H15 O4 P1", "chemsys": "C-H-O-P", "energy": -880.031213834, "esp": {"1": ["P", 0.898503], "2": ["O", -0.415165], "3": ["O", -0.432429], "4": ["O", -0.414127], "5": ["O", -0.606431], "6": ["C", 0.373456], "7": ["C", 0.41473], "8": ["C", 0.374493], "9": ["C", -0.329134], "10": ["C", -0.358765], "11": ["C", -0.351871], "12": ["H", 0.004454], "13": ["H", -0.000165], "14": ["H", -0.004138], "15": ["H", -0.010068], "16": ["H", 0.00496], "17": ["H", -0.000768], "18": ["H", 0.099301], "19": ["H", 0.074854], "20": ["H", 0.09758], "21": ["H", 0.106514], "22": ["H", 0.079315], "23": ["H", 0.104319], "24": ["H", 0.106273], "25": ["H", 0.0823], "26": ["H", 0.102008]}, "dipole_moment": {"X": -0.7494, "Y": 0.8303, "Z": -0.4755, "Tot": 1.2153}, "functional": "B3LYP", "basis": "6-31+G*", "phase": "gas", "tag": "lis", "state": "successful", "wall_time (s)": 12.278164896997623, "version": "0.0.1", "gauss_version": "ES64L-G16RevC.01", "last_updated": "2021-12-19T18:39:26.905015", "polarizability": 106.44, "solvent": "TEP", "_id": null, "run_locs": ["/gpfs/scratch/ratwi/invited/ESP/TEP/run.json", "/gpfs/scratch/ratwi/invited/ESP/TEP/ESP/run.json"]}