{"molecule": {"@module": "pymatgen.core.structure", "@class": "Molecule", "charge": 0, "spin_multiplicity": 1, "sites": [{"name": "F", "species": [{"element": "F", "occu": 1}], "xyz": [1.844865, 0.975425, 3.275388], "properties": {}}, {"name": "F", "species": [{"element": "F", "occu": 1}], "xyz": [1.333047, -0.319164, 1.587629], "properties": {}}, {"name": "F", "species": [{"element": "F", "occu": 1}], "xyz": [3.346816, 3.966998, -2.780309], "properties": {}}, {"name": "F", "species": [{"element": "F", "occu": 1}], "xyz": [5.035051, 2.809066, -2.008693], "properties": {}}, {"name": "F", "species": [{"element": "F", "occu": 1}], "xyz": [4.447162, -0.029963, 3.257507], "properties": {}}, {"name": "F", "species": [{"element": "F", "occu": 1}], "xyz": [2.879035, -1.577049, 3.434425], "properties": {}}, {"name": "F", "species": [{"element": "F", "occu": 1}], "xyz": [2.332248, 1.673843, -4.002696], "properties": {}}, {"name": "F", "species": [{"element": "F", "occu": 1}], "xyz": [4.411478, 2.159788, -4.572321], "properties": {}}, {"name": "O", "species": [{"element": "O", "occu": 1}], "xyz": [2.938145, 1.243043, 1.320075], "properties": {}}, {"name": "O", "species": [{"element": "O", "occu": 1}], "xyz": [2.944591, 2.254013, -1.368219], "properties": {}}, {"name": "C", "species": [{"element": "C", "occu": 1}], "xyz": [2.093776, 2.322136, 0.856579], "properties": {}}, {"name": "C", "species": [{"element": "C", "occu": 1}], "xyz": [2.867478, 3.086676, -0.187979], "properties": {}}, {"name": "C", "species": [{"element": "C", "occu": 1}], "xyz": [2.376746, 0.361613, 2.173204], "properties": {}}, {"name": "C", "species": [{"element": "C", "occu": 1}], "xyz": [3.712682, 2.710163, -2.379103], "properties": {}}, {"name": "C", "species": [{"element": "C", "occu": 1}], "xyz": [3.443762, -0.668487, 2.593768], "properties": {}}, {"name": "C", "species": [{"element": "C", "occu": 1}], "xyz": [3.618617, 1.720774, -3.557558], "properties": {}}, {"name": "H", "species": [{"element": "H", "occu": 1}], "xyz": [1.170175, 1.914035, 0.434924], "properties": {}}, {"name": "H", "species": [{"element": "H", "occu": 1}], "xyz": [1.858067, 2.981775, 1.698084], "properties": {}}, {"name": "H", "species": [{"element": "H", "occu": 1}], "xyz": [2.338704, 4.013082, -0.434934], "properties": {}}, {"name": "H", "species": [{"element": "H", "occu": 1}], "xyz": [3.876023, 3.318537, 0.167622], "properties": {}}, {"name": "H", "species": [{"element": "H", "occu": 1}], "xyz": [3.855897, -1.185013, 1.722619], "properties": {}}, {"name": "H", "species": [{"element": "H", "occu": 1}], "xyz": [3.934993, 0.718721, -3.255313], "properties": {}}]}, "smiles": "FC(F)(OCCOC(F)(F)C(F)F)C(F)F", "inchi": "InChI=1S/C6H6F8O2/c7-3(8)5(11,12)15-1-2-16-6(13,14)4(9)10/h3-4H,1-2H2", "formula_alphabetical": "C6 F8 H6 O2", "chemsys": "C-F-H-O", "energy": -1181.48213621, "esp": {"1": ["F", -0.167958], "2": ["F", -0.211314], "3": ["F", -0.154343], "4": ["F", -0.199251], "5": ["F", -0.205327], "6": ["F", -0.205583], "7": ["F", -0.194136], "8": ["F", -0.193548], "9": ["O", -0.361283], "10": ["O", -0.338631], "11": ["C", 0.114336], "12": ["C", 0.065205], "13": ["C", 0.413251], "14": ["C", 0.374735], "15": ["C", 0.350508], "16": ["C", 0.313164], "17": ["H", 0.107356], "18": ["H", 0.069709], "19": ["H", 0.080435], "20": ["H", 0.118182], "21": ["H", 0.105674], "22": ["H", 0.118818]}, "dipole_moment": {"X": -0.2988, "Y": 0.6074, "Z": 0.2271, "Tot": 0.714}, "functional": "B3LYP", "basis": "6-31+G*", "phase": "gas", "tag": "lis", "state": "successful", "wall_time (s)": 14.35226436299854, "version": "0.0.1", "gauss_version": "ES64L-G16RevC.01", "last_updated": "2021-12-19T18:40:33.193074", "polarizability": 86.53, "solvent": "TFEE", "_id": null, "run_locs": ["/gpfs/scratch/ratwi/invited/ESP/TFEE/run.json", "/gpfs/scratch/ratwi/invited/ESP/TFEE/ESP/run.json"]}