{"molecule": {"@module": "pymatgen.core.structure", "@class": "Molecule", "charge": 0, "spin_multiplicity": 1, "sites": [{"name": "F", "species": [{"element": "F", "occu": 1}], "xyz": [0.669834, 0.900469, 4.796559], "properties": {}}, {"name": "F", "species": [{"element": "F", "occu": 1}], "xyz": [2.647703, 1.758309, 5.120055], "properties": {}}, {"name": "F", "species": [{"element": "F", "occu": 1}], "xyz": [2.200719, -0.254986, 5.847173], "properties": {}}, {"name": "O", "species": [{"element": "O", "occu": 1}], "xyz": [2.169466, 0.741069, 2.371924], "properties": {}}, {"name": "O", "species": [{"element": "O", "occu": 1}], "xyz": [4.937233, 0.817879, 1.573368], "properties": {}}, {"name": "C", "species": [{"element": "C", "occu": 1}], "xyz": [2.899112, 1.951879, 2.137485], "properties": {}}, {"name": "C", "species": [{"element": "C", "occu": 1}], "xyz": [4.403581, 1.872595, 2.350836], "properties": {}}, {"name": "C", "species": [{"element": "C", "occu": 1}], "xyz": [2.469998, -0.017626, 3.510874], "properties": {}}, {"name": "C", "species": [{"element": "C", "occu": 1}], "xyz": [1.98618, 0.606016, 4.818767], "properties": {}}, {"name": "C", "species": [{"element": "C", "occu": 1}], "xyz": [6.345505, 0.703014, 1.686842], "properties": {}}, {"name": "H", "species": [{"element": "H", "occu": 1}], "xyz": [2.689861, 2.182807, 1.089736], "properties": {}}, {"name": "H", "species": [{"element": "H", "occu": 1}], "xyz": [2.502966, 2.763496, 2.763907], "properties": {}}, {"name": "H", "species": [{"element": "H", "occu": 1}], "xyz": [4.832041, 2.84442, 2.047918], "properties": {}}, {"name": "H", "species": [{"element": "H", "occu": 1}], "xyz": [4.65247, 1.731325, 3.415557], "properties": {}}, {"name": "H", "species": [{"element": "H", "occu": 1}], "xyz": [3.540976, -0.231967, 3.616294], "properties": {}}, {"name": "H", "species": [{"element": "H", "occu": 1}], "xyz": [1.937349, -0.965912, 3.399264], "properties": {}}, {"name": "H", "species": [{"element": "H", "occu": 1}], "xyz": [6.852616, 1.615311, 1.333753], "properties": {}}, {"name": "H", "species": [{"element": "H", "occu": 1}], "xyz": [6.650713, 0.510238, 2.728404], "properties": {}}, {"name": "H", "species": [{"element": "H", "occu": 1}], "xyz": [6.648329, -0.140806, 1.062003], "properties": {}}]}, "smiles": "FC(F)(F)COCCOC", "inchi": "InChI=1S/C5H9F3O2/c1-9-2-3-10-4-5(6,7)8/h2-4H2,1H3", "formula_alphabetical": "C5 F3 H9 O2", "chemsys": "C-F-H-O", "energy": -645.92796876, "esp": {"1": ["F", -0.223035], "2": ["F", -0.233067], "3": ["F", -0.271301], "4": ["O", -0.293282], "5": ["O", -0.299851], "6": ["C", -0.127042], "7": ["C", 0.096025], "8": ["C", -0.211443], "9": ["C", 0.747523], "10": ["C", -0.091183], "11": ["H", 0.140056], "12": ["H", 0.108349], "13": ["H", 0.065471], "14": ["H", 0.044082], "15": ["H", 0.152478], "16": ["H", 0.15587], "17": ["H", 0.069802], "18": ["H", 0.066977], "19": ["H", 0.10357]}, "dipole_moment": {"X": 2.753, "Y": 0.5911, "Z": -0.7074, "Tot": 2.9032}, "functional": "B3LYP", "basis": "6-31+G*", "phase": "gas", "tag": "lis", "state": "successful", "wall_time (s)": 8.57122615998378, "version": "0.0.1", "gauss_version": "ES64L-G16RevC.01", "last_updated": "2021-12-19T18:42:51.098544", "polarizability": 71.13, "solvent": "TFEG", "_id": null, "run_locs": ["/gpfs/scratch/ratwi/invited/ESP/TFEG/run.json", "/gpfs/scratch/ratwi/invited/ESP/TFEG/ESP/run.json"]}