{"molecule": {"@module": "pymatgen.core.structure", "@class": "Molecule", "charge": 0, "spin_multiplicity": 1, "sites": [{"name": "F", "species": [{"element": "F", "occu": 1}], "xyz": [2.657556, 3.410693, -0.149969], "properties": {}}, {"name": "F", "species": [{"element": "F", "occu": 1}], "xyz": [1.052145, 2.120312, 0.593322], "properties": {}}, {"name": "F", "species": [{"element": "F", "occu": 1}], "xyz": [4.495212, 2.02808, 1.445121], "properties": {}}, {"name": "F", "species": [{"element": "F", "occu": 1}], "xyz": [2.783175, 2.886308, 2.54783], "properties": {}}, {"name": "O", "species": [{"element": "O", "occu": 1}], "xyz": [2.768127, 1.189145, -0.540404], "properties": {}}, {"name": "C", "species": [{"element": "C", "occu": 1}], "xyz": [2.759583, 0.08986, -2.689469], "properties": {}}, {"name": "C", "species": [{"element": "C", "occu": 1}], "xyz": [2.167868, 1.232649, -1.868657], "properties": {}}, {"name": "C", "species": [{"element": "C", "occu": 1}], "xyz": [4.274122, 0.259345, -2.882398], "properties": {}}, {"name": "C", "species": [{"element": "C", "occu": 1}], "xyz": [2.413435, -1.279573, -2.085677], "properties": {}}, {"name": "C", "species": [{"element": "C", "occu": 1}], "xyz": [2.407196, 2.14931, 0.32554], "properties": {}}, {"name": "C", "species": [{"element": "C", "occu": 1}], "xyz": [3.152411, 1.925825, 1.656164], "properties": {}}, {"name": "H", "species": [{"element": "H", "occu": 1}], "xyz": [2.27262, 0.167492, -3.673769], "properties": {}}, {"name": "H", "species": [{"element": "H", "occu": 1}], "xyz": [1.083108, 1.127457, -1.758521], "properties": {}}, {"name": "H", "species": [{"element": "H", "occu": 1}], "xyz": [2.395641, 2.204855, -2.317684], "properties": {}}, {"name": "H", "species": [{"element": "H", "occu": 1}], "xyz": [4.795968, 0.204635, -1.920693], "properties": {}}, {"name": "H", "species": [{"element": "H", "occu": 1}], "xyz": [4.671001, -0.53047, -3.530575], "properties": {}}, {"name": "H", "species": [{"element": "H", "occu": 1}], "xyz": [4.513456, 1.226545, -3.341416], "properties": {}}, {"name": "H", "species": [{"element": "H", "occu": 1}], "xyz": [1.329788, -1.403194, -1.966138], "properties": {}}, {"name": "H", "species": [{"element": "H", "occu": 1}], "xyz": [2.777136, -2.088141, -2.730095], "properties": {}}, {"name": "H", "species": [{"element": "H", "occu": 1}], "xyz": [2.878671, -1.397476, -1.100668], "properties": {}}, {"name": "H", "species": [{"element": "H", "occu": 1}], "xyz": [2.926329, 0.93994, 2.071437], "properties": {}}]}, "smiles": "FC(F)(OCC(C)C)C(F)F", "inchi": "InChI=1S/C6H10F4O/c1-4(2)3-11-6(9,10)5(7)8/h4-5H,3H2,1-2H3", "formula_alphabetical": "C6 F4 H10 O1", "chemsys": "C-F-H-O", "energy": -709.290053474, "esp": {"1": ["F", -0.156744], "2": ["F", -0.202942], "3": ["F", -0.204836], "4": ["F", -0.203092], "5": ["O", -0.288376], "6": ["C", 0.333522], "7": ["C", -0.010312], "8": ["C", -0.26189], "9": ["C", -0.334111], "10": ["C", 0.339244], "11": ["C", 0.34465], "12": ["H", -0.044752], "13": ["H", 0.084462], "14": ["H", 0.077175], "15": ["H", 0.065682], "16": ["H", 0.063464], "17": ["H", 0.059581], "18": ["H", 0.074468], "19": ["H", 0.087902], "20": ["H", 0.074433], "21": ["H", 0.102471]}, "dipole_moment": {"X": -0.5942, "Y": -2.516, "Z": -2.2134, "Tot": 3.4033}, "functional": "B3LYP", "basis": "6-31+G*", "phase": "gas", "tag": "lis", "state": "successful", "wall_time (s)": 10.335104764992138, "version": "0.0.1", "gauss_version": "ES64L-G16RevC.01", "last_updated": "2021-12-19T18:39:21.598237", "polarizability": 78.93, "solvent": "TFEiBE", "_id": null, "run_locs": ["/gpfs/scratch/ratwi/invited/ESP/TFEiBE/run.json", "/gpfs/scratch/ratwi/invited/ESP/TFEiBE/ESP/run.json"]}