{"molecule": {"@module": "pymatgen.core.structure", "@class": "Molecule", "charge": 0, "spin_multiplicity": 1, "sites": [{"name": "F", "species": [{"element": "F", "occu": 1}], "xyz": [2.341128, -3.123777, -1.264578], "properties": {}}, {"name": "F", "species": [{"element": "F", "occu": 1}], "xyz": [1.009769, -1.387227, -1.189806], "properties": {}}, {"name": "F", "species": [{"element": "F", "occu": 1}], "xyz": [4.418613, -1.489733, -2.166251], "properties": {}}, {"name": "F", "species": [{"element": "F", "occu": 1}], "xyz": [2.586817, -1.394074, -3.398085], "properties": {}}, {"name": "O", "species": [{"element": "O", "occu": 1}], "xyz": [2.850257, -1.410879, 0.117024], "properties": {}}, {"name": "C", "species": [{"element": "C", "occu": 1}], "xyz": [2.263083, -2.022383, 1.30382], "properties": {}}, {"name": "C", "species": [{"element": "C", "occu": 1}], "xyz": [2.885274, -1.349469, 2.516415], "properties": {}}, {"name": "C", "species": [{"element": "C", "occu": 1}], "xyz": [2.332844, -1.766895, -1.070622], "properties": {}}, {"name": "C", "species": [{"element": "C", "occu": 1}], "xyz": [2.549949, 0.142125, 2.624148], "properties": {}}, {"name": "C", "species": [{"element": "C", "occu": 1}], "xyz": [3.124247, -1.06409, -2.191186], "properties": {}}, {"name": "H", "species": [{"element": "H", "occu": 1}], "xyz": [1.178158, -1.871082, 1.273231], "properties": {}}, {"name": "H", "species": [{"element": "H", "occu": 1}], "xyz": [2.48049, -3.094608, 1.277995], "properties": {}}, {"name": "H", "species": [{"element": "H", "occu": 1}], "xyz": [2.522888, -1.884865, 3.40453], "properties": {}}, {"name": "H", "species": [{"element": "H", "occu": 1}], "xyz": [3.972421, -1.495321, 2.479901], "properties": {}}, {"name": "H", "species": [{"element": "H", "occu": 1}], "xyz": [3.098564, 0.022048, -2.067978], "properties": {}}, {"name": "H", "species": [{"element": "H", "occu": 1}], "xyz": [1.465237, 0.299072, 2.682117], "properties": {}}, {"name": "H", "species": [{"element": "H", "occu": 1}], "xyz": [3.001799, 0.580046, 3.521193], "properties": {}}, {"name": "H", "species": [{"element": "H", "occu": 1}], "xyz": [2.923842, 0.691311, 1.753752], "properties": {}}]}, "smiles": "FC(F)(OCCC)C(F)F", "inchi": "InChI=1S/C5H8F4O/c1-2-3-10-5(8,9)4(6)7/h4H,2-3H2,1H3", "formula_alphabetical": "C5 F4 H8 O1", "chemsys": "C-F-H-O", "energy": -669.975329066, "esp": {"1": ["F", -0.175248], "2": ["F", -0.224943], "3": ["F", -0.208959], "4": ["F", -0.206517], "5": ["O", -0.352383], "6": ["C", 0.083644], "7": ["C", 0.06631], "8": ["C", 0.430717], "9": ["C", -0.169139], "10": ["C", 0.337281], "11": ["H", 0.078558], "12": ["H", 0.058431], "13": ["H", 0.001868], "14": ["H", 0.030699], "15": ["H", 0.103813], "16": ["H", 0.051218], "17": ["H", 0.050087], "18": ["H", 0.044561]}, "dipole_moment": {"X": -0.2106, "Y": 1.2066, "Z": 3.2004, "Tot": 3.4268}, "functional": "B3LYP", "basis": "6-31+G*", "phase": "gas", "tag": "lis", "state": "successful", "wall_time (s)": 8.474240520998137, "version": "0.0.1", "gauss_version": "ES64L-G16RevC.01", "last_updated": "2021-12-19T18:39:37.552379", "polarizability": 67.4, "solvent": "TFEPE", "_id": null, "run_locs": ["/gpfs/scratch/ratwi/invited/ESP/TFEPE/run.json", "/gpfs/scratch/ratwi/invited/ESP/TFEPE/ESP/run.json"]}