{"molecule": {"@module": "pymatgen.core.structure", "@class": "Molecule", "charge": 0, "spin_multiplicity": 1, "sites": [{"name": "F", "species": [{"element": "F", "occu": 1}], "xyz": [1.042477, 0.191331, 0.511733], "properties": {}}, {"name": "F", "species": [{"element": "F", "occu": 1}], "xyz": [0.727698, -0.0261, -1.634019], "properties": {}}, {"name": "F", "species": [{"element": "F", "occu": 1}], "xyz": [-0.81245, 0.910784, -0.395556], "properties": {}}, {"name": "O", "species": [{"element": "O", "occu": 1}], "xyz": [2.529414, 2.171787, -0.904825], "properties": {}}, {"name": "C", "species": [{"element": "C", "occu": 1}], "xyz": [3.054646, 1.942515, -2.223204], "properties": {}}, {"name": "C", "species": [{"element": "C", "occu": 1}], "xyz": [4.573552, 1.995637, -2.138526], "properties": {}}, {"name": "C", "species": [{"element": "C", "occu": 1}], "xyz": [1.132953, 2.190366, -0.797141], "properties": {}}, {"name": "C", "species": [{"element": "C", "occu": 1}], "xyz": [5.16504, 0.878132, -1.271495], "properties": {}}, {"name": "C", "species": [{"element": "C", "occu": 1}], "xyz": [0.530376, 0.803259, -0.57651], "properties": {}}, {"name": "H", "species": [{"element": "H", "occu": 1}], "xyz": [2.723655, 0.964644, -2.597789], "properties": {}}, {"name": "H", "species": [{"element": "H", "occu": 1}], "xyz": [2.670818, 2.721526, -2.901451], "properties": {}}, {"name": "H", "species": [{"element": "H", "occu": 1}], "xyz": [4.966572, 1.929709, -3.162555], "properties": {}}, {"name": "H", "species": [{"element": "H", "occu": 1}], "xyz": [4.868171, 2.97747, -1.745397], "properties": {}}, {"name": "H", "species": [{"element": "H", "occu": 1}], "xyz": [0.643583, 2.626204, -1.680759], "properties": {}}, {"name": "H", "species": [{"element": "H", "occu": 1}], "xyz": [0.873199, 2.788322, 0.081827], "properties": {}}, {"name": "H", "species": [{"element": "H", "occu": 1}], "xyz": [4.896583, -0.109776, -1.667643], "properties": {}}, {"name": "H", "species": [{"element": "H", "occu": 1}], "xyz": [6.258872, 0.942452, -1.24052], "properties": {}}, {"name": "H", "species": [{"element": "H", "occu": 1}], "xyz": [4.788362, 0.941888, -0.24569], "properties": {}}]}, "smiles": "FC(F)(F)COCCC", "inchi": "InChI=1S/C5H9F3O/c1-2-3-9-4-5(6,7)8/h2-4H2,1H3", "formula_alphabetical": "C5 F3 H9 O1", "chemsys": "C-F-H-O", "energy": -570.72867075, "esp": {"1": ["F", -0.203677], "2": ["F", -0.216114], "3": ["F", -0.249391], "4": ["O", -0.335558], "5": ["C", 0.099394], "6": ["C", 0.043576], "7": ["C", -0.052324], "8": ["C", -0.119308], "9": ["C", 0.634803], "10": ["H", 0.046377], "11": ["H", 0.029924], "12": ["H", -0.000581], "13": ["H", 0.020392], "14": ["H", 0.086494], "15": ["H", 0.112625], "16": ["H", 0.038981], "17": ["H", 0.033278], "18": ["H", 0.031108]}, "dipole_moment": {"X": 0.7138, "Y": 1.7658, "Z": -1.5385, "Tot": 2.4484}, "functional": "B3LYP", "basis": "6-31+G*", "phase": "gas", "tag": "lis", "state": "successful", "wall_time (s)": 7.796982951986138, "version": "0.0.1", "gauss_version": "ES64L-G16RevC.01", "last_updated": "2021-12-19T18:40:49.458369", "polarizability": 66.91, "solvent": "TFEP", "_id": null, "run_locs": ["/gpfs/scratch/ratwi/invited/ESP/TFEP/run.json", "/gpfs/scratch/ratwi/invited/ESP/TFEP/ESP/run.json"]}