{"molecule": {"@module": "pymatgen.core.structure", "@class": "Molecule", "charge": 0, "spin_multiplicity": 1, "sites": [{"name": "F", "species": [{"element": "F", "occu": 1}], "xyz": [1.119041, -0.241448, 0.259763], "properties": {}}, {"name": "F", "species": [{"element": "F", "occu": 1}], "xyz": [2.691214, -0.943219, -1.086928], "properties": {}}, {"name": "F", "species": [{"element": "F", "occu": 1}], "xyz": [2.975709, 0.013731, 2.313091], "properties": {}}, {"name": "F", "species": [{"element": "F", "occu": 1}], "xyz": [2.929062, -1.998407, 1.400499], "properties": {}}, {"name": "F", "species": [{"element": "F", "occu": 1}], "xyz": [3.076772, 3.881643, -0.511906], "properties": {}}, {"name": "F", "species": [{"element": "F", "occu": 1}], "xyz": [4.171642, 2.777721, -2.040379], "properties": {}}, {"name": "F", "species": [{"element": "F", "occu": 1}], "xyz": [2.287292, 3.765302, -2.547662], "properties": {}}, {"name": "O", "species": [{"element": "O", "occu": 1}], "xyz": [2.840805, 1.13139, -0.219607], "properties": {}}, {"name": "C", "species": [{"element": "C", "occu": 1}], "xyz": [2.457967, -0.148021, 0.009003], "properties": {}}, {"name": "C", "species": [{"element": "C", "occu": 1}], "xyz": [2.136834, 1.823673, -1.255801], "properties": {}}, {"name": "C", "species": [{"element": "C", "occu": 1}], "xyz": [3.275813, -0.699486, 1.194259], "properties": {}}, {"name": "C", "species": [{"element": "C", "occu": 1}], "xyz": [2.938156, 3.073287, -1.581209], "properties": {}}, {"name": "H", "species": [{"element": "H", "occu": 1}], "xyz": [2.064026, 1.214785, -2.160931], "properties": {}}, {"name": "H", "species": [{"element": "H", "occu": 1}], "xyz": [1.141882, 2.120227, -0.913667], "properties": {}}, {"name": "H", "species": [{"element": "H", "occu": 1}], "xyz": [4.349114, -0.634009, 0.995837], "properties": {}}]}, "smiles": "FC(F)(OCC(F)(F)F)C(F)F", "inchi": "InChI=1S/C4H3F7O/c5-2(6)4(10,11)12-1-3(7,8)9/h2H,1H2", "formula_alphabetical": "C4 F7 H3 O1", "chemsys": "C-F-H-O", "energy": -928.395959011, "esp": {"1": ["F", -0.151048], "2": ["F", -0.18772], "3": ["F", -0.183023], "4": ["F", -0.187809], "5": ["F", -0.174362], "6": ["F", -0.177881], "7": ["F", -0.211025], "8": ["O", -0.296864], "9": ["C", 0.388767], "10": ["C", -0.134834], "11": ["C", 0.29186], "12": ["C", 0.570447], "13": ["H", 0.160624], "14": ["H", 0.167519], "15": ["H", 0.125348]}, "dipole_moment": {"X": -0.0049, "Y": 0.0278, "Z": -1.0788, "Tot": 1.0792}, "functional": "B3LYP", "basis": "6-31+G*", "phase": "gas", "tag": "lis", "state": "successful", "wall_time (s)": 8.46948755098856, "version": "0.0.1", "gauss_version": "ES64L-G16RevC.01", "last_updated": "2021-12-19T18:44:29.623777", "polarizability": 58.15, "solvent": "TFETFE", "_id": null, "run_locs": ["/gpfs/scratch/ratwi/invited/ESP/TFETFE/run.json", "/gpfs/scratch/ratwi/invited/ESP/TFETFE/ESP/run.json"]}