{"molecule": {"@module": "pymatgen.core.structure", "@class": "Molecule", "charge": 0, "spin_multiplicity": 1, "sites": [{"name": "Si", "species": [{"element": "Si", "occu": 1}], "xyz": [1.050507, 0.04968, 0.034879], "properties": {}}, {"name": "F", "species": [{"element": "F", "occu": 1}], "xyz": [0.731127, -0.57226, -2.657053], "properties": {}}, {"name": "F", "species": [{"element": "F", "occu": 1}], "xyz": [-0.961945, 0.534811, -1.822468], "properties": {}}, {"name": "F", "species": [{"element": "F", "occu": 1}], "xyz": [0.90584, 1.577058, -2.284822], "properties": {}}, {"name": "C", "species": [{"element": "C", "occu": 1}], "xyz": [0.40094, 0.414387, -1.766803], "properties": {}}, {"name": "C", "species": [{"element": "C", "occu": 1}], "xyz": [0.252186, -1.572406, 0.554106], "properties": {}}, {"name": "C", "species": [{"element": "C", "occu": 1}], "xyz": [0.493926, 1.504413, 1.089434], "properties": {}}, {"name": "C", "species": [{"element": "C", "occu": 1}], "xyz": [2.922271, -0.073035, -0.105004], "properties": {}}, {"name": "H", "species": [{"element": "H", "occu": 1}], "xyz": [0.568132, -1.854884, 1.566284], "properties": {}}, {"name": "H", "species": [{"element": "H", "occu": 1}], "xyz": [-0.84128, -1.492734, 0.552907], "properties": {}}, {"name": "H", "species": [{"element": "H", "occu": 1}], "xyz": [0.532719, -2.385888, -0.125275], "properties": {}}, {"name": "H", "species": [{"element": "H", "occu": 1}], "xyz": [0.821349, 1.378884, 2.129223], "properties": {}}, {"name": "H", "species": [{"element": "H", "occu": 1}], "xyz": [0.913021, 2.446227, 0.716114], "properties": {}}, {"name": "H", "species": [{"element": "H", "occu": 1}], "xyz": [-0.598523, 1.596967, 1.089521], "properties": {}}, {"name": "H", "species": [{"element": "H", "occu": 1}], "xyz": [3.215569, -0.880754, -0.785875], "properties": {}}, {"name": "H", "species": [{"element": "H", "occu": 1}], "xyz": [3.352058, 0.861597, -0.484156], "properties": {}}, {"name": "H", "species": [{"element": "H", "occu": 1}], "xyz": [3.372811, -0.277953, 0.874359], "properties": {}}]}, "smiles": "[Si](C(F)(F)F)(C)(C)C", "inchi": "InChI=1S/C4H9F3Si/c1-8(2,3)4(5,6)7/h1-3H3", "formula_alphabetical": "C4 F3 H9 Si1", "chemsys": "C-F-H-Si", "energy": -746.935919908, "esp": {"1": ["Si", 0.813114], "2": ["F", -0.206277], "3": ["F", -0.204556], "4": ["F", -0.205461], "5": ["C", 0.344818], "6": ["C", -0.536808], "7": ["C", -0.555103], "8": ["C", -0.491373], "9": ["H", 0.124866], "10": ["H", 0.115655], "11": ["H", 0.114255], "12": ["H", 0.129813], "13": ["H", 0.119087], "14": ["H", 0.119797], "15": ["H", 0.101523], "16": ["H", 0.102658], "17": ["H", 0.113993]}, "dipole_moment": {"X": 1.1289, "Y": -0.6339, "Z": 3.131, "Tot": 3.3881}, "functional": "B3LYP", "basis": "6-31+G*", "phase": "gas", "tag": "lis", "state": "successful", "wall_time (s)": 7.078413918032311, "version": "0.0.1", "gauss_version": "ES64L-G16RevC.01", "last_updated": "2021-12-19T18:42:00.633934", "polarizability": 74.06, "solvent": "TFMTMS", "_id": null, "run_locs": ["/gpfs/scratch/ratwi/invited/ESP/TFMTMS/run.json", "/gpfs/scratch/ratwi/invited/ESP/TFMTMS/ESP/run.json"]}