{"molecule": {"@module": "pymatgen.core.structure", "@class": "Molecule", "charge": 0, "spin_multiplicity": 1, "sites": [{"name": "F", "species": [{"element": "F", "occu": 1}], "xyz": [5.211103, 1.326419, 0.755214], "properties": {}}, {"name": "F", "species": [{"element": "F", "occu": 1}], "xyz": [5.0942, -0.426245, -0.586002], "properties": {}}, {"name": "F", "species": [{"element": "F", "occu": 1}], "xyz": [6.537485, 1.591704, -1.659981], "properties": {}}, {"name": "F", "species": [{"element": "F", "occu": 1}], "xyz": [4.611156, 1.34846, -2.72432], "properties": {}}, {"name": "O", "species": [{"element": "O", "occu": 1}], "xyz": [2.690532, 2.170896, -0.257981], "properties": {}}, {"name": "O", "species": [{"element": "O", "occu": 1}], "xyz": [0.639307, 2.179375, 1.794812], "properties": {}}, {"name": "C", "species": [{"element": "C", "occu": 1}], "xyz": [4.655846, 0.860015, -0.408362], "properties": {}}, {"name": "C", "species": [{"element": "C", "occu": 1}], "xyz": [3.138566, 0.83435, -0.301982], "properties": {}}, {"name": "C", "species": [{"element": "C", "occu": 1}], "xyz": [1.298466, 2.350386, -0.500028], "properties": {}}, {"name": "C", "species": [{"element": "C", "occu": 1}], "xyz": [5.189109, 1.74802, -1.54553], "properties": {}}, {"name": "C", "species": [{"element": "C", "occu": 1}], "xyz": [0.381605, 1.667288, 0.505209], "properties": {}}, {"name": "C", "species": [{"element": "C", "occu": 1}], "xyz": [-0.167224, 1.59132, 2.800973], "properties": {}}, {"name": "H", "species": [{"element": "H", "occu": 1}], "xyz": [2.746348, 0.299581, -1.179318], "properties": {}}, {"name": "H", "species": [{"element": "H", "occu": 1}], "xyz": [2.881973, 0.275896, 0.608398], "properties": {}}, {"name": "H", "species": [{"element": "H", "occu": 1}], "xyz": [1.144515, 3.431855, -0.45982], "properties": {}}, {"name": "H", "species": [{"element": "H", "occu": 1}], "xyz": [1.04339, 1.991592, -1.511582], "properties": {}}, {"name": "H", "species": [{"element": "H", "occu": 1}], "xyz": [4.957037, 2.800415, -1.373579], "properties": {}}, {"name": "H", "species": [{"element": "H", "occu": 1}], "xyz": [-0.662489, 1.864298, 0.201242], "properties": {}}, {"name": "H", "species": [{"element": "H", "occu": 1}], "xyz": [0.520534, 0.571827, 0.488813], "properties": {}}, {"name": "H", "species": [{"element": "H", "occu": 1}], "xyz": [-1.238203, 1.775138, 2.617066], "properties": {}}, {"name": "H", "species": [{"element": "H", "occu": 1}], "xyz": [-0.000319, 0.503727, 2.864469], "properties": {}}, {"name": "H", "species": [{"element": "H", "occu": 1}], "xyz": [0.119263, 2.053512, 3.748668], "properties": {}}]}, "smiles": "FC(F)(COCCOC)C(F)F", "inchi": "InChI=1S/C6H10F4O2/c1-11-2-3-12-4-6(9,10)5(7)8/h5H,2-4H2,1H3", "formula_alphabetical": "C6 F4 H10 O2", "chemsys": "C-F-H-O", "energy": -784.47533311, "esp": {"1": ["F", -0.208553], "2": ["F", -0.209479], "3": ["F", -0.231716], "4": ["F", -0.223494], "5": ["O", -0.264999], "6": ["O", -0.329994], "7": ["C", 0.395471], "8": ["C", -0.353753], "9": ["C", -0.144825], "10": ["C", 0.415266], "11": ["C", 0.190717], "12": ["C", -0.022453], "13": ["H", 0.17314], "14": ["H", 0.247385], "15": ["H", 0.141547], "16": ["H", 0.108968], "17": ["H", 0.08402], "18": ["H", 0.032286], "19": ["H", 0.011612], "20": ["H", 0.046941], "21": ["H", 0.054289], "22": ["H", 0.087623]}, "dipole_moment": {"X": -4.8701, "Y": -0.0648, "Z": 0.3158, "Tot": 4.8807}, "functional": "B3LYP", "basis": "6-31+G*", "phase": "gas", "tag": "lis", "state": "successful", "wall_time (s)": 10.924533211014932, "version": "0.0.1", "gauss_version": "ES64L-G16RevC.01", "last_updated": "2021-12-19T18:43:56.365683", "polarizability": 83.89, "solvent": "TFPG", "_id": null, "run_locs": ["/gpfs/scratch/ratwi/invited/ESP/TFPG/run.json", "/gpfs/scratch/ratwi/invited/ESP/TFPG/ESP/run.json"]}