{"molecule": {"@module": "pymatgen.core.structure", "@class": "Molecule", "charge": 0, "spin_multiplicity": 1, "sites": [{"name": "O", "species": [{"element": "O", "occu": 1}], "xyz": [1.132535, -0.018161, -0.015561], "properties": {}}, {"name": "C", "species": [{"element": "C", "occu": 1}], "xyz": [-1.128152, -0.724244, -0.217635], "properties": {}}, {"name": "C", "species": [{"element": "C", "occu": 1}], "xyz": [-1.104996, 0.742481, 0.24268], "properties": {}}, {"name": "C", "species": [{"element": "C", "occu": 1}], "xyz": [0.295614, -1.17755, 0.129279], "properties": {}}, {"name": "C", "species": [{"element": "C", "occu": 1}], "xyz": [0.320794, 1.161659, -0.137801], "properties": {}}, {"name": "H", "species": [{"element": "H", "occu": 1}], "xyz": [-1.295333, -0.780655, -1.300695], "properties": {}}, {"name": "H", "species": [{"element": "H", "occu": 1}], "xyz": [-1.89691, -1.32593, 0.278546], "properties": {}}, {"name": "H", "species": [{"element": "H", "occu": 1}], "xyz": [-1.870481, 1.362754, -0.235331], "properties": {}}, {"name": "H", "species": [{"element": "H", "occu": 1}], "xyz": [-1.245267, 0.802539, 1.329361], "properties": {}}, {"name": "H", "species": [{"element": "H", "occu": 1}], "xyz": [0.357105, -1.536214, 1.16811], "properties": {}}, {"name": "H", "species": [{"element": "H", "occu": 1}], "xyz": [0.676779, -1.963888, -0.53196], "properties": {}}, {"name": "H", "species": [{"element": "H", "occu": 1}], "xyz": [0.366145, 1.521104, -1.177153], "properties": {}}, {"name": "H", "species": [{"element": "H", "occu": 1}], "xyz": [0.736777, 1.936974, 0.51545], "properties": {}}]}, "smiles": "O1CCCC1", "inchi": "InChI=1S/C4H8O/c1-2-4-5-3-1/h1-4H2", "formula_alphabetical": "C4 H8 O1", "chemsys": "C-H-O", "energy": -232.459372512, "esp": {"1": ["O", -0.484508], "2": ["C", -0.011932], "3": ["C", -0.031648], "4": ["C", 0.209687], "5": ["C", 0.219369], "6": ["H", 0.034319], "7": ["H", -0.008182], "8": ["H", -0.004151], "9": ["H", 0.037919], "10": ["H", 0.012154], "11": ["H", 0.009113], "12": ["H", 0.010146], "13": ["H", 0.007715]}, "dipole_moment": {"X": -2.0187, "Y": 0.0247, "Z": 0.0265, "Tot": 2.019}, "functional": "B3LYP", "basis": "6-31+G*", "phase": "gas", "tag": "lis", "state": "successful", "wall_time (s)": 4.533505801984575, "version": "0.0.1", "gauss_version": "ES64L-G16RevC.01", "last_updated": "2021-12-19T18:43:45.284441", "polarizability": 48.71, "solvent": "THF", "_id": null, "run_locs": ["/gpfs/scratch/ratwi/invited/ESP/THF/run.json", "/gpfs/scratch/ratwi/invited/ESP/THF/ESP/run.json"]}