{"molecule": {"@module": "pymatgen.core.structure", "@class": "Molecule", "charge": 0, "spin_multiplicity": 1, "sites": [{"name": "P", "species": [{"element": "P", "occu": 1}], "xyz": [0.593122, 0.111088, 0.232708], "properties": {}}, {"name": "O", "species": [{"element": "O", "occu": 1}], "xyz": [0.626639, 0.861238, 1.652332], "properties": {}}, {"name": "O", "species": [{"element": "O", "occu": 1}], "xyz": [0.917342, 1.304068, -0.792379], "properties": {}}, {"name": "O", "species": [{"element": "O", "occu": 1}], "xyz": [-0.979839, -0.118371, 0.004168], "properties": {}}, {"name": "O", "species": [{"element": "O", "occu": 1}], "xyz": [1.449775, -1.096858, 0.11569], "properties": {}}, {"name": "C", "species": [{"element": "C", "occu": 1}], "xyz": [1.899442, 1.075387, 2.300121], "properties": {}}, {"name": "C", "species": [{"element": "C", "occu": 1}], "xyz": [1.164114, 0.986612, -2.179414], "properties": {}}, {"name": "C", "species": [{"element": "C", "occu": 1}], "xyz": [-1.618079, -1.255711, 0.624366], "properties": {}}, {"name": "H", "species": [{"element": "H", "occu": 1}], "xyz": [2.465206, 0.140211, 2.350673], "properties": {}}, {"name": "H", "species": [{"element": "H", "occu": 1}], "xyz": [2.47309, 1.83524, 1.758656], "properties": {}}, {"name": "H", "species": [{"element": "H", "occu": 1}], "xyz": [1.668259, 1.433184, 3.304816], "properties": {}}, {"name": "H", "species": [{"element": "H", "occu": 1}], "xyz": [1.917312, 0.197389, -2.263194], "properties": {}}, {"name": "H", "species": [{"element": "H", "occu": 1}], "xyz": [0.233219, 0.673527, -2.664225], "properties": {}}, {"name": "H", "species": [{"element": "H", "occu": 1}], "xyz": [1.527841, 1.907719, -2.637826], "properties": {}}, {"name": "H", "species": [{"element": "H", "occu": 1}], "xyz": [-1.063372, -2.172856, 0.404471], "properties": {}}, {"name": "H", "species": [{"element": "H", "occu": 1}], "xyz": [-1.684405, -1.104637, 1.707144], "properties": {}}, {"name": "H", "species": [{"element": "H", "occu": 1}], "xyz": [-2.620584, -1.307429, 0.196363], "properties": {}}]}, "smiles": "P(=O)(OC)(OC)OC", "inchi": "InChI=1S/C3H9O4P/c1-5-8(4,6-2)7-3/h1-3H3", "formula_alphabetical": "C3 H9 O4 P1", "chemsys": "C-H-O-P", "energy": -762.069602232, "esp": {"1": ["P", 1.169238], "2": ["O", -0.412097], "3": ["O", -0.419657], "4": ["O", -0.411149], "5": ["O", -0.638129], "6": ["C", 0.010245], "7": ["C", 0.030004], "8": ["C", -0.006068], "9": ["H", 0.06628], "10": ["H", 0.065102], "11": ["H", 0.095077], "12": ["H", 0.062941], "13": ["H", 0.060468], "14": ["H", 0.088165], "15": ["H", 0.072574], "16": ["H", 0.068608], "17": ["H", 0.098399]}, "dipole_moment": {"X": -0.5165, "Y": 0.7307, "Z": 0.0721, "Tot": 0.8977}, "functional": "B3LYP", "basis": "6-31+G*", "phase": "gas", "tag": "lis", "state": "successful", "wall_time (s)": 6.917887889954727, "version": "0.0.1", "gauss_version": "ES64L-G16RevC.01", "last_updated": "2021-12-19T18:44:56.788440", "polarizability": 69.75, "solvent": "TMP", "_id": null, "run_locs": ["/gpfs/scratch/ratwi/invited/ESP/TMP/run.json", "/gpfs/scratch/ratwi/invited/ESP/TMP/ESP/run.json"]}