{"molecule": {"@module": "pymatgen.core.structure", "@class": "Molecule", "charge": 0, "spin_multiplicity": 1, "sites": [{"name": "C", "species": [{"element": "C", "occu": 1}], "xyz": [0.988446, -0.00068, 0.010531], "properties": {}}, {"name": "C", "species": [{"element": "C", "occu": 1}], "xyz": [0.270804, 1.202279, -0.063814], "properties": {}}, {"name": "C", "species": [{"element": "C", "occu": 1}], "xyz": [0.265839, -1.201081, 0.079654], "properties": {}}, {"name": "C", "species": [{"element": "C", "occu": 1}], "xyz": [2.500389, -0.005705, -0.015024], "properties": {}}, {"name": "C", "species": [{"element": "C", "occu": 1}], "xyz": [-1.12695, 1.207772, -0.074406], "properties": {}}, {"name": "C", "species": [{"element": "C", "occu": 1}], "xyz": [-1.131837, -1.202108, 0.069433], "properties": {}}, {"name": "C", "species": [{"element": "C", "occu": 1}], "xyz": [-1.83458, 0.003942, -0.008617], "properties": {}}, {"name": "H", "species": [{"element": "H", "occu": 1}], "xyz": [0.812715, 2.144958, -0.112063], "properties": {}}, {"name": "H", "species": [{"element": "H", "occu": 1}], "xyz": [0.803921, -2.145011, 0.143971], "properties": {}}, {"name": "H", "species": [{"element": "H", "occu": 1}], "xyz": [2.908945, -0.856759, 0.541573], "properties": {}}, {"name": "H", "species": [{"element": "H", "occu": 1}], "xyz": [2.875942, -0.077962, -1.044914], "properties": {}}, {"name": "H", "species": [{"element": "H", "occu": 1}], "xyz": [2.912863, 0.912042, 0.419169], "properties": {}}, {"name": "H", "species": [{"element": "H", "occu": 1}], "xyz": [-1.662479, 2.152524, -0.13032], "properties": {}}, {"name": "H", "species": [{"element": "H", "occu": 1}], "xyz": [-1.671246, -2.144608, 0.126088], "properties": {}}, {"name": "H", "species": [{"element": "H", "occu": 1}], "xyz": [-2.921611, 0.005836, -0.013782], "properties": {}}]}, "smiles": "c1(ccccc1)C", "inchi": "InChI=1S/C7H8/c1-7-5-3-2-4-6-7/h2-6H,1H3", "formula_alphabetical": "C7 H8", "chemsys": "C-H", "energy": -271.577271847, "esp": {"1": ["C", 0.349103], "2": ["C", -0.264002], "3": ["C", -0.257712], "4": ["C", -0.498028], "5": ["C", -0.097004], "6": ["C", -0.09989], "7": ["C", -0.142923], "8": ["H", 0.137058], "9": ["H", 0.135327], "10": ["H", 0.126993], "11": ["H", 0.134445], "12": ["H", 0.129401], "13": ["H", 0.115231], "14": ["H", 0.115928], "15": ["H", 0.116073]}, "dipole_moment": {"X": 0.3927, "Y": -0.0048, "Z": -0.0411, "Tot": 0.3949}, "functional": "B3LYP", "basis": "6-31+G*", "phase": "gas", "tag": "lis", "state": "successful", "wall_time (s)": 6.1097210939915385, "version": "0.0.1", "gauss_version": "ES64L-G16RevC.01", "last_updated": "2021-12-19T18:44:23.567516", "polarizability": 79.01, "solvent": "luene", "_id": null, "run_locs": ["/gpfs/scratch/ratwi/invited/ESP/luene/run.json", "/gpfs/scratch/ratwi/invited/ESP/luene/ESP/run.json"]}