{"molecule": {"@module": "pymatgen.core.structure", "@class": "Molecule", "charge": 0, "spin_multiplicity": 1, "sites": [{"name": "F", "species": [{"element": "F", "occu": 1}], "xyz": [3.197828, 0.873939, 0.745395], "properties": {}}, {"name": "F", "species": [{"element": "F", "occu": 1}], "xyz": [1.208064, 0.103252, 0.192635], "properties": {}}, {"name": "F", "species": [{"element": "F", "occu": 1}], "xyz": [2.587593, -1.537486, 1.894281], "properties": {}}, {"name": "F", "species": [{"element": "F", "occu": 1}], "xyz": [2.277215, -2.433415, -0.073564], "properties": {}}, {"name": "F", "species": [{"element": "F", "occu": 1}], "xyz": [4.247276, -1.668779, 0.480495], "properties": {}}, {"name": "F", "species": [{"element": "F", "occu": 1}], "xyz": [3.607441, 1.241509, -3.842858], "properties": {}}, {"name": "F", "species": [{"element": "F", "occu": 1}], "xyz": [1.465404, 0.813198, -3.768345], "properties": {}}, {"name": "F", "species": [{"element": "F", "occu": 1}], "xyz": [3.130491, 3.83837, -2.973143], "properties": {}}, {"name": "F", "species": [{"element": "F", "occu": 1}], "xyz": [1.979676, 3.27865, -4.7748], "properties": {}}, {"name": "O", "species": [{"element": "O", "occu": 1}], "xyz": [2.535737, 1.369113, -1.864488], "properties": {}}, {"name": "C", "species": [{"element": "C", "occu": 1}], "xyz": [2.5475, -0.071584, 0.012345], "properties": {}}, {"name": "C", "species": [{"element": "C", "occu": 1}], "xyz": [2.908369, 0.046808, -1.462259], "properties": {}}, {"name": "C", "species": [{"element": "C", "occu": 1}], "xyz": [2.92058, -1.45891, 0.602179], "properties": {}}, {"name": "C", "species": [{"element": "C", "occu": 1}], "xyz": [2.451909, 1.582058, -3.199956], "properties": {}}, {"name": "C", "species": [{"element": "C", "occu": 1}], "xyz": [2.110859, 3.067011, -3.437665], "properties": {}}, {"name": "H", "species": [{"element": "H", "occu": 1}], "xyz": [3.984164, -0.099301, -1.59076], "properties": {}}, {"name": "H", "species": [{"element": "H", "occu": 1}], "xyz": [2.352835, -0.706623, -2.027234], "properties": {}}, {"name": "H", "species": [{"element": "H", "occu": 1}], "xyz": [1.182589, 3.343329, -2.930159], "properties": {}}]}, "smiles": "FC(F)(COC(F)(F)C(F)F)C(F)(F)F", "inchi": "InChI=1S/C5H3F9O/c6-2(7)4(10,11)15-1-3(8,9)5(12,13)14/h2H,1H2", "formula_alphabetical": "C5 F9 H3 O1", "chemsys": "C-F-H-O", "energy": -1166.18999068, "esp": {"1": ["F", -0.152066], "2": ["F", -0.154559], "3": ["F", -0.155063], "4": ["F", -0.189773], "5": ["F", -0.18715], "6": ["F", -0.148261], "7": ["F", -0.18455], "8": ["F", -0.195721], "9": ["F", -0.194007], "10": ["O", -0.264703], "11": ["C", 0.206392], "12": ["C", 0.027458], "13": ["C", 0.558599], "14": ["C", 0.340277], "15": ["C", 0.338158], "16": ["H", 0.118756], "17": ["H", 0.123266], "18": ["H", 0.112948]}, "dipole_moment": {"X": -0.4363, "Y": -0.9234, "Z": 0.1705, "Tot": 1.0354}, "functional": "B3LYP", "basis": "6-31+G*", "phase": "gas", "tag": "lis", "state": "successful", "wall_time (s)": 12.021733839006629, "version": "0.0.1", "gauss_version": "ES64L-G16RevC.01", "last_updated": "2021-12-19T18:45:45.128191", "polarizability": 71.27, "solvent": "TPE", "_id": null, "run_locs": ["/gpfs/scratch/ratwi/invited/ESP/TPE/run.json", "/gpfs/scratch/ratwi/invited/ESP/TPE/ESP/run.json"]}