{"molecule": {"@module": "pymatgen.core.structure", "@class": "Molecule", "charge": 0, "spin_multiplicity": 1, "sites": [{"name": "F", "species": [{"element": "F", "occu": 1}], "xyz": [2.811833, -0.777524, 0.933052], "properties": {}}, {"name": "F", "species": [{"element": "F", "occu": 1}], "xyz": [0.974755, 0.061863, 0.046362], "properties": {}}, {"name": "F", "species": [{"element": "F", "occu": 1}], "xyz": [3.693744, 3.641697, 1.863855], "properties": {}}, {"name": "F", "species": [{"element": "F", "occu": 1}], "xyz": [1.627516, 3.923326, 1.207703], "properties": {}}, {"name": "F", "species": [{"element": "F", "occu": 1}], "xyz": [2.301603, 0.456815, -2.334918], "properties": {}}, {"name": "F", "species": [{"element": "F", "occu": 1}], "xyz": [4.142798, -0.387105, -1.446741], "properties": {}}, {"name": "F", "species": [{"element": "F", "occu": 1}], "xyz": [2.796522, 2.588151, 4.275395], "properties": {}}, {"name": "F", "species": [{"element": "F", "occu": 1}], "xyz": [1.968314, 4.584297, 3.814513], "properties": {}}, {"name": "O", "species": [{"element": "O", "occu": 1}], "xyz": [2.361303, 1.836635, 1.642341], "properties": {}}, {"name": "C", "species": [{"element": "C", "occu": 1}], "xyz": [2.34257, 0.116778, 0.010036], "properties": {}}, {"name": "C", "species": [{"element": "C", "occu": 1}], "xyz": [2.829288, 1.521074, 0.324676], "properties": {}}, {"name": "C", "species": [{"element": "C", "occu": 1}], "xyz": [2.430825, 3.139378, 2.001605], "properties": {}}, {"name": "C", "species": [{"element": "C", "occu": 1}], "xyz": [2.778575, -0.391797, -1.37597], "properties": {}}, {"name": "C", "species": [{"element": "C", "occu": 1}], "xyz": [1.947828, 3.270898, 3.460041], "properties": {}}, {"name": "H", "species": [{"element": "H", "occu": 1}], "xyz": [3.921705, 1.543457, 0.29454], "properties": {}}, {"name": "H", "species": [{"element": "H", "occu": 1}], "xyz": [2.416176, 2.213458, -0.413713], "properties": {}}, {"name": "H", "species": [{"element": "H", "occu": 1}], "xyz": [2.406798, -1.40233, -1.565573], "properties": {}}, {"name": "H", "species": [{"element": "H", "occu": 1}], "xyz": [0.934487, 2.876698, 3.575285], "properties": {}}]}, "smiles": "FC(F)(COC(F)(F)C(F)F)C(F)F", "inchi": "InChI=1S/C5H4F8O/c6-2(7)4(10,11)1-14-5(12,13)3(8)9/h2-3H,1H2", "formula_alphabetical": "C5 F8 H4 O1", "chemsys": "C-F-H-O", "energy": -1066.9414212, "esp": {"1": ["F", -0.185455], "2": ["F", -0.189475], "3": ["F", -0.170305], "4": ["F", -0.204741], "5": ["F", -0.200999], "6": ["F", -0.199961], "7": ["F", -0.197442], "8": ["F", -0.198594], "9": ["O", -0.332502], "10": ["C", 0.259435], "11": ["C", 0.176447], "12": ["C", 0.406693], "13": ["C", 0.259506], "14": ["C", 0.334404], "15": ["H", 0.088394], "16": ["H", 0.091652], "17": ["H", 0.152021], "18": ["H", 0.110921]}, "dipole_moment": {"X": -0.86, "Y": -1.5593, "Z": -1.5084, "Tot": 2.3337}, "functional": "B3LYP", "basis": "6-31+G*", "phase": "gas", "tag": "lis", "state": "successful", "wall_time (s)": 11.00700786296511, "version": "0.0.1", "gauss_version": "ES64L-G16RevC.01", "last_updated": "2021-12-19T18:39:20.763388", "polarizability": 70.19, "solvent": "TTE", "_id": null, "run_locs": ["/gpfs/scratch/ratwi/invited/ESP/TTE/run.json", "/gpfs/scratch/ratwi/invited/ESP/TTE/ESP/run.json"]}