{"molecule": {"@module": "pymatgen.core.structure", "@class": "Molecule", "charge": 0, "spin_multiplicity": 1, "sites": [{"name": "P", "species": [{"element": "P", "occu": 1}], "xyz": [1.512744, -0.544635, -0.123446], "properties": {}}, {"name": "F", "species": [{"element": "F", "occu": 1}], "xyz": [0.155351, 2.529227, -1.354125], "properties": {}}, {"name": "F", "species": [{"element": "F", "occu": 1}], "xyz": [-0.660454, 1.608949, -3.152966], "properties": {}}, {"name": "F", "species": [{"element": "F", "occu": 1}], "xyz": [-2.012922, 2.331805, -1.593952], "properties": {}}, {"name": "F", "species": [{"element": "F", "occu": 1}], "xyz": [-1.18783, -2.185698, 0.577335], "properties": {}}, {"name": "F", "species": [{"element": "F", "occu": 1}], "xyz": [-0.572319, -4.036088, -0.398691], "properties": {}}, {"name": "F", "species": [{"element": "F", "occu": 1}], "xyz": [-0.898362, -4.004493, 1.761674], "properties": {}}, {"name": "F", "species": [{"element": "F", "occu": 1}], "xyz": [3.070867, 2.292365, -0.098228], "properties": {}}, {"name": "F", "species": [{"element": "F", "occu": 1}], "xyz": [5.023764, 1.437081, -0.55352], "properties": {}}, {"name": "F", "species": [{"element": "F", "occu": 1}], "xyz": [4.10554, 2.849778, -1.946191], "properties": {}}, {"name": "O", "species": [{"element": "O", "occu": 1}], "xyz": [0.439865, -0.267055, -1.377218], "properties": {}}, {"name": "O", "species": [{"element": "O", "occu": 1}], "xyz": [1.590235, -2.208835, -0.117993], "properties": {}}, {"name": "O", "species": [{"element": "O", "occu": 1}], "xyz": [2.89961, -0.41393, -1.017719], "properties": {}}, {"name": "C", "species": [{"element": "C", "occu": 1}], "xyz": [-0.803331, 0.364431, -1.121659], "properties": {}}, {"name": "C", "species": [{"element": "C", "occu": 1}], "xyz": [1.043786, -2.926651, 0.97217], "properties": {}}, {"name": "C", "species": [{"element": "C", "occu": 1}], "xyz": [3.16896, 0.692217, -1.863856], "properties": {}}, {"name": "C", "species": [{"element": "C", "occu": 1}], "xyz": [-0.827246, 1.718206, -1.816907], "properties": {}}, {"name": "C", "species": [{"element": "C", "occu": 1}], "xyz": [-0.412573, -3.297564, 0.714361], "properties": {}}, {"name": "C", "species": [{"element": "C", "occu": 1}], "xyz": [3.851432, 1.821705, -1.10147], "properties": {}}, {"name": "H", "species": [{"element": "H", "occu": 1}], "xyz": [-1.608883, -0.252743, -1.527885], "properties": {}}, {"name": "H", "species": [{"element": "H", "occu": 1}], "xyz": [-0.982967, 0.533889, -0.05352], "properties": {}}, {"name": "H", "species": [{"element": "H", "occu": 1}], "xyz": [1.613998, -3.852088, 1.083436], "properties": {}}, {"name": "H", "species": [{"element": "H", "occu": 1}], "xyz": [1.079286, -2.364412, 1.914073], "properties": {}}, {"name": "H", "species": [{"element": "H", "occu": 1}], "xyz": [3.855962, 0.346089, -2.639506], "properties": {}}, {"name": "H", "species": [{"element": "H", "occu": 1}], "xyz": [2.263659, 1.0888, -2.332378], "properties": {}}]}, "smiles": "P(OCC(F)(F)F)(OCC(F)(F)F)OCC(F)(F)F", "inchi": "InChI=1S/C6H6F9O3P/c7-4(8,9)1-16-19(17-2-5(10,11)12)18-3-6(13,14)15/h1-3H2", "formula_alphabetical": "C6 F9 H6 O3 P1", "chemsys": "C-F-H-O-P", "energy": -1697.97322369, "esp": {"1": ["P", 0.169801], "2": ["F", -0.205666], "3": ["F", -0.220125], "4": ["F", -0.228475], "5": ["F", -0.155839], "6": ["F", -0.162645], "7": ["F", -0.204505], "8": ["F", -0.199251], "9": ["F", -0.211981], "10": ["F", -0.227905], "11": ["O", -0.151669], "12": ["O", -0.261733], "13": ["O", -0.177659], "14": ["C", -0.328045], "15": ["C", 0.040531], "16": ["C", -0.153307], "17": ["C", 0.70416], "18": ["C", 0.478115], "19": ["C", 0.650865], "20": ["H", 0.199721], "21": ["H", 0.158796], "22": ["H", 0.116914], "23": ["H", 0.089784], "24": ["H", 0.14515], "25": ["H", 0.134968]}, "dipole_moment": {"X": -0.4701, "Y": -1.7105, "Z": 1.2135, "Tot": 2.1493}, "functional": "B3LYP", "basis": "6-31+G*", "phase": "gas", "tag": "lis", "state": "successful", "wall_time (s)": 23.62013262999244, "version": "0.0.1", "gauss_version": "ES64L-G16RevC.01", "last_updated": "2021-12-19T18:40:55.530238", "polarizability": 114.03, "solvent": "TTFP", "_id": null, "run_locs": ["/gpfs/scratch/ratwi/invited/ESP/TTFP/run.json", "/gpfs/scratch/ratwi/invited/ESP/TTFP/ESP/run.json"]}